VARIABLES = X,Y,Z,PERMEABILITY
ZONE T = DEFAULT, N = 5151, E = 5000, F = FEPOINT, ET = QUADRILATERAL
0.000000000000e+00 0.000000000000e+00 0.000000000000e+00 2.147091541760e-04
1.000000000000e+00 0.000000000000e+00 0.000000000000e+00 2.065941555245e-04
2.000000000000e+00 0.000000000000e+00 0.000000000000e+00 1.901768829225e-04
3.000000000000e+00 0.000000000000e+00 0.000000000000e+00 1.738885092830e-04
4.000000000000e+00 0.000000000000e+00 0.000000000000e+00 1.585283029010e-04
5.000000000000e+00 0.000000000000e+00 0.000000000000e+00 1.445275259545e-04
6.000000000000e+00 0.000000000000e+00 0.000000000000e+00 1.320489853340e-04
7.000000000000e+00 0.000000000000e+00 0.000000000000e+00 1.210841441935e-04
8.000000000000e+00 0.000000000000e+00 0.000000000000e+00 1.115309132870e-04
9.000000000000e+00 0.000000000000e+00 0.000000000000e+00 1.032480272352e-04
1.000000000000e+01 0.000000000000e+00 0.000000000000e+00 9.608846005480e-05
1.100000000000e+01 0.000000000000e+00 0.000000000000e+00 8.991664472495e-05
1.200000000000e+01 0.000000000000e+00 0.000000000000e+00 8.461438293420e-05
1.300000000000e+01 0.000000000000e+00 0.000000000000e+00 8.007959582775e-05
1.400000000000e+01 0.000000000000e+00 0.000000000000e+00 7.622112867405e-05
1.500000000000e+01 0.000000000000e+00 0.000000000000e+00 7.295194182825e-05
1.600000000000e+01 0.000000000000e+00 0.000000000000e+00 7.018230206790e-05
1.700000000000e+01 0.000000000000e+00 0.000000000000e+00 6.781409297885e-05
1.800000000000e+01 0.000000000000e+00 0.000000000000e+00 6.573711433400e-05
1.900000000000e+01 0.000000000000e+00 0.000000000000e+00 6.382818899215e-05
2.000000000000e+01 0.000000000000e+00 0.000000000000e+00 6.195389311840e-05
2.100000000000e+01 0.000000000000e+00 0.000000000000e+00 5.997754229790e-05
2.200000000000e+01 0.000000000000e+00 0.000000000000e+00 5.777047424300e-05
2.300000000000e+01 0.000000000000e+00 0.000000000000e+00 5.522658016290e-05
2.400000000000e+01 0.000000000000e+00 0.000000000000e+00 5.227764851570e-05
2.500000000000e+01 0.000000000000e+00 0.000000000000e+00 4.890592425355e-05
2.600000000000e+01 0.000000000000e+00 0.000000000000e+00 4.515004641630e-05
2.700000000000e+01 0.000000000000e+00 0.000000000000e+00 4.110168705620e-05
2.800000000000e+01 0.000000000000e+00 0.000000000000e+00 3.689264509170e-05
2.900000000000e+01 0.000000000000e+00 0.000000000000e+00 3.267500398420e-05
3.000000000000e+01 0.000000000000e+00 0.000000000000e+00 2.859904317805e-05
3.100000000000e+01 0.000000000000e+00 0.000000000000e+00 2.479400653610e-05
3.200000000000e+01 0.000000000000e+00 0.000000000000e+00 2.135549641160e-05
3.300000000000e+01 0.000000000000e+00 0.000000000000e+00 1.834091052495e-05
3.400000000000e+01 0.000000000000e+00 0.000000000000e+00 1.577203301570e-05
3.500000000000e+01 0.000000000000e+00 0.000000000000e+00 1.364244126655e-05
3.600000000000e+01 0.000000000000e+00 0.000000000000e+00 1.192704352715e-05
3.700000000000e+01 0.000000000000e+00 0.000000000000e+00 1.059156988300e-05
3.800000000000e+01 0.000000000000e+00 0.000000000000e+00 9.600738588715e-06
3.900000000000e+01 0.000000000000e+00 0.000000000000e+00 8.924705922000e-06
4.000000000000e+01 0.000000000000e+00 0.000000000000e+00 8.544060465470e-06
4.100000000000e+01 0.000000000000e+00 0.000000000000e+00 8.453997895020e-06
4.200000000000e+01 0.000000000000e+00 0.000000000000e+00 8.668463416850e-06
4.300000000000e+01 0.000000000000e+00 0.000000000000e+00 9.225042715180e-06
4.400000000000e+01 0.000000000000e+00 0.000000000000e+00 1.019123518116e-05
4.500000000000e+01 0.000000000000e+00 0.000000000000e+00 1.167237897370e-05
4.600000000000e+01 0.000000000000e+00 0.000000000000e+00 1.382072298465e-05
4.700000000000e+01 0.000000000000e+00 0.000000000000e+00 1.684366441305e-05
4.800000000000e+01 0.000000000000e+00 0.000000000000e+00 2.100673539580e-05
4.900000000000e+01 0.000000000000e+00 0.000000000000e+00 2.662366713235e-05
5.000000000000e+01 0.000000000000e+00 0.000000000000e+00 3.402295887420e-05
5.100000000000e+01 0.000000000000e+00 0.000000000000e+00 4.348066725720e-05
5.200000000000e+01 0.000000000000e+00 0.000000000000e+00 5.511678161930e-05
5.300000000000e+01 0.000000000000e+00 0.000000000000e+00 6.877044937745e-05
5.400000000000e+01 0.000000000000e+00 0.000000000000e+00 8.389401136705e-05
5.500000000000e+01 0.000000000000e+00 0.000000000000e+00 9.952364126730e-05
5.600000000000e+01 0.000000000000e+00 0.000000000000e+00 1.143757969310e-04
5.700000000000e+01 0.000000000000e+00 0.000000000000e+00 1.270738024840e-04
5.800000000000e+01 0.000000000000e+00 0.000000000000e+00 1.364439276360e-04
5.900000000000e+01 0.000000000000e+00 0.000000000000e+00 1.417749567620e-04
6.000000000000e+01 0.000000000000e+00 0.000000000000e+00 1.429439718125e-04
6.100000000000e+01 0.000000000000e+00 0.000000000000e+00 1.403722223675e-04
6.200000000000e+01 0.000000000000e+00 0.000000000000e+00 1.348495844905e-04
6.300000000000e+01 0.000000000000e+00 0.000000000000e+00 1.273099747250e-04
6.400000000000e+01 0.000000000000e+00 0.000000000000e+00 1.186365786835e-04
6.500000000000e+01 0.000000000000e+00 0.000000000000e+00 1.095405706380e-04
6.600000000000e+01 0.000000000000e+00 0.000000000000e+00 1.005178700829e-04
6.700000000000e+01 0.000000000000e+00 0.000000000000e+00 9.186398745800e-05
6.800000000000e+01 0.000000000000e+00 0.000000000000e+00 8.372022920465e-05
6.900000000000e+01 0.000000000000e+00 0.000000000000e+00 7.612900273420e-05
7.000000000000e+01 0.000000000000e+00 0.000000000000e+00 6.908397002225e-05
7.100000000000e+01 0.000000000000e+00 0.000000000000e+00 6.256777954875e-05
7.200000000000e+01 0.000000000000e+00 0.000000000000e+00 5.657490354675e-05
7.300000000000e+01 0.000000000000e+00 0.000000000000e+00 5.112032450785e-05
7.400000000000e+01 0.000000000000e+00 0.000000000000e+00 4.623717578740e-05
7.500000000000e+01 0.000000000000e+00 0.000000000000e+00 4.196802614895e-05
7.600000000000e+01 0.000000000000e+00 0.000000000000e+00 3.835491144110e-05
7.700000000000e+01 0.000000000000e+00 0.000000000000e+00 3.543222148590e-05
7.800000000000e+01 0.000000000000e+00 0.000000000000e+00 3.322451222355e-05
7.900000000000e+01 0.000000000000e+00 0.000000000000e+00 3.174907128655e-05
8.000000000000e+01 0.000000000000e+00 0.000000000000e+00 3.102140327720e-05
8.100000000000e+01 0.000000000000e+00 0.000000000000e+00 3.106101332220e-05
8.200000000000e+01 0.000000000000e+00 0.000000000000e+00 3.189474429870e-05
8.300000000000e+01 0.000000000000e+00 0.000000000000e+00 3.355508801290e-05
8.400000000000e+01 0.000000000000e+00 0.000000000000e+00 3.607120645085e-05
8.500000000000e+01 0.000000000000e+00 0.000000000000e+00 3.945120663260e-05
8.600000000000e+01 0.000000000000e+00 0.000000000000e+00 4.365625808005e-05
8.700000000000e+01 0.000000000000e+00 0.000000000000e+00 4.857106279925e-05
8.800000000000e+01 0.000000000000e+00 0.000000000000e+00 5.398052216080e-05
8.900000000000e+01 0.000000000000e+00 0.000000000000e+00 5.956664815075e-05
9.000000000000e+01 0.000000000000e+00 0.000000000000e+00 6.493851098390e-05
9.100000000000e+01 0.000000000000e+00 0.000000000000e+00 6.969800652295e-05
9.200000000000e+01 0.000000000000e+00 0.000000000000e+00 7.352752803890e-05
9.300000000000e+01 0.000000000000e+00 0.000000000000e+00 7.627122268670e-05
9.400000000000e+01 0.000000000000e+00 0.000000000000e+00 7.798017753060e-05
9.500000000000e+01 0.000000000000e+00 0.000000000000e+00 7.890692584575e-05
9.600000000000e+01 0.000000000000e+00 0.000000000000e+00 7.945759523085e-05
9.700000000000e+01 0.000000000000e+00 0.000000000000e+00 8.012673919960e-05
9.800000000000e+01 0.000000000000e+00 0.000000000000e+00 8.144186626280e-05
9.900000000000e+01 0.000000000000e+00 0.000000000000e+00 8.393413060715e-05
1.000000000000e+02 0.000000000000e+00 0.000000000000e+00 8.554073240560e-05
0.000000000000e+00 1.000000000000e+00 0.000000000000e+00 2.167425554790e-04
1.000000000000e+00 1.000000000000e+00 0.000000000000e+00 2.088998446440e-04
2.000000000000e+00 1.000000000000e+00 0.000000000000e+00 1.929437759100e-04
3.000000000000e+00 1.000000000000e+00 0.000000000000e+00 1.769496061412e-04
4.000000000000e+00 1.000000000000e+00 0.000000000000e+00 1.617244843040e-04
5.000000000000e+00 1.000000000000e+00 0.000000000000e+00 1.477202562860e-04
6.000000000000e+00 1.000000000000e+00 0.000000000000e+00 1.351259006585e-04
7.000000000000e+00 1.000000000000e+00 0.000000000000e+00 1.239597563123e-04
8.000000000000e+00 1.000000000000e+00 0.000000000000e+00 1.141445126582e-04
9.000000000000e+00 1.000000000000e+00 0.000000000000e+00 1.055602421053e-04
1.000000000000e+01 1.000000000000e+00 0.000000000000e+00 9.807730886725e-05
1.100000000000e+01 1.000000000000e+00 0.000000000000e+00 9.157350742278e-05
1.200000000000e+01 1.000000000000e+00 0.000000000000e+00 8.594012549805e-05
1.300000000000e+01 1.000000000000e+00 0.000000000000e+00 8.108103479178e-05
1.400000000000e+01 1.000000000000e+00 0.000000000000e+00 7.690803047665e-05
1.500000000000e+01 1.000000000000e+00 0.000000000000e+00 7.333475571900e-05
1.600000000000e+01 1.000000000000e+00 0.000000000000e+00 7.027080055413e-05
1.700000000000e+01 1.000000000000e+00 0.000000000000e+00 6.761703876793e-05
1.800000000000e+01 1.000000000000e+00 0.000000000000e+00 6.526298955053e-05
1.900000000000e+01 1.000000000000e+00 0.000000000000e+00 6.308690568895e-05
2.000000000000e+01 1.000000000000e+00 0.000000000000e+00 6.095924420990e-05
2.100000000000e+01 1.000000000000e+00 0.000000000000e+00 5.874995284625e-05
2.200000000000e+01 1.000000000000e+00 0.000000000000e+00 5.633941355452e-05
2.300000000000e+01 1.000000000000e+00 0.000000000000e+00 5.363187865327e-05
2.400000000000e+01 1.000000000000e+00 0.000000000000e+00 5.056903519082e-05
2.500000000000e+01 1.000000000000e+00 0.000000000000e+00 4.714043076150e-05
2.600000000000e+01 1.000000000000e+00 0.000000000000e+00 4.338747719115e-05
2.700000000000e+01 1.000000000000e+00 0.000000000000e+00 3.939896354283e-05
2.800000000000e+01 1.000000000000e+00 0.000000000000e+00 3.529824738620e-05
2.900000000000e+01 1.000000000000e+00 0.000000000000e+00 3.122475510325e-05
3.000000000000e+01 1.000000000000e+00 0.000000000000e+00 2.731407999678e-05
3.100000000000e+01 1.000000000000e+00 0.000000000000e+00 2.368112640805e-05
3.200000000000e+01 1.000000000000e+00 0.000000000000e+00 2.040943403192e-05
3.300000000000e+01 1.000000000000e+00 0.000000000000e+00 1.754771544800e-05
3.400000000000e+01 1.000000000000e+00 0.000000000000e+00 1.511266509505e-05
3.500000000000e+01 1.000000000000e+00 0.000000000000e+00 1.309590782610e-05
3.600000000000e+01 1.000000000000e+00 0.000000000000e+00 1.147272030210e-05
3.700000000000e+01 1.000000000000e+00 0.000000000000e+00 1.021064129275e-05
3.800000000000e+01 1.000000000000e+00 0.000000000000e+00 9.276887174352e-06
3.900000000000e+01 1.000000000000e+00 0.000000000000e+00 8.644265644877e-06
4.000000000000e+01 1.000000000000e+00 0.000000000000e+00 8.295853067137e-06
4.100000000000e+01 1.000000000000e+00 0.000000000000e+00 8.229035615065e-06
4.200000000000e+01 1.000000000000e+00 0.000000000000e+00 8.459658181403e-06
4.300000000000e+01 1.000000000000e+00 0.000000000000e+00 9.027032035860e-06
4.400000000000e+01 1.000000000000e+00 0.000000000000e+00 1.000042793208e-05
4.500000000000e+01 1.000000000000e+00 0.000000000000e+00 1.148734115505e-05
4.600000000000e+01 1.000000000000e+00 0.000000000000e+00 1.364305752115e-05
4.700000000000e+01 1.000000000000e+00 0.000000000000e+00 1.667956985895e-05
4.800000000000e+01 1.000000000000e+00 0.000000000000e+00 2.086941382125e-05
4.900000000000e+01 1.000000000000e+00 0.000000000000e+00 2.653662011733e-05
5.000000000000e+01 1.000000000000e+00 0.000000000000e+00 3.402387352190e-05
5.100000000000e+01 1.000000000000e+00 0.000000000000e+00 4.362499821763e-05
5.200000000000e+01 1.000000000000e+00 0.000000000000e+00 5.547936824695e-05
5.300000000000e+01 1.000000000000e+00 0.000000000000e+00 6.944291112467e-05
5.400000000000e+01 1.000000000000e+00 0.000000000000e+00 8.497582437158e-05
5.500000000000e+01 1.000000000000e+00 0.000000000000e+00 1.011062583947e-04
5.600000000000e+01 1.000000000000e+00 0.000000000000e+00 1.165219012150e-04
5.700000000000e+01 1.000000000000e+00 0.000000000000e+00 1.297967674545e-04
5.800000000000e+01 1.000000000000e+00 0.000000000000e+00 1.396940728360e-04
5.900000000000e+01 1.000000000000e+00 0.000000000000e+00 1.454378768745e-04
6.000000000000e+01 1.000000000000e+00 0.000000000000e+00 1.468522721195e-04
6.100000000000e+01 1.000000000000e+00 0.000000000000e+00 1.443273098095e-04
6.200000000000e+01 1.000000000000e+00 0.000000000000e+00 1.386471498818e-04
6.300000000000e+01 1.000000000000e+00 0.000000000000e+00 1.307627504560e-04
6.400000000000e+01 1.000000000000e+00 0.000000000000e+00 1.215903503122e-04
6.500000000000e+01 1.000000000000e+00 0.000000000000e+00 1.118825892722e-04
6.600000000000e+01 1.000000000000e+00 0.000000000000e+00 1.021791682945e-04
6.700000000000e+01 1.000000000000e+00 0.000000000000e+00 9.281794586348e-05
6.800000000000e+01 1.000000000000e+00 0.000000000000e+00 8.397928617640e-05
6.900000000000e+01 1.000000000000e+00 0.000000000000e+00 7.574033407922e-05
7.000000000000e+01 1.000000000000e+00 0.000000000000e+00 6.812400510903e-05
7.100000000000e+01 1.000000000000e+00 0.000000000000e+00 6.113504258185e-05
7.200000000000e+01 1.000000000000e+00 0.000000000000e+00 5.478099806930e-05
7.300000000000e+01 1.000000000000e+00 0.000000000000e+00 4.907967926585e-05
7.400000000000e+01 1.000000000000e+00 0.000000000000e+00 4.405696025665e-05
7.500000000000e+01 1.000000000000e+00 0.000000000000e+00 3.973994893592e-05
7.600000000000e+01 1.000000000000e+00 0.000000000000e+00 3.615023620927e-05
7.700000000000e+01 1.000000000000e+00 0.000000000000e+00 3.330046094065e-05
7.800000000000e+01 1.000000000000e+00 0.000000000000e+00 3.119532171770e-05
7.900000000000e+01 1.000000000000e+00 0.000000000000e+00 2.983625058275e-05
8.000000000000e+01 1.000000000000e+00 0.000000000000e+00 2.922777212313e-05
8.100000000000e+01 1.000000000000e+00 0.000000000000e+00 2.938314228900e-05
8.200000000000e+01 1.000000000000e+00 0.000000000000e+00 3.032686793325e-05
8.300000000000e+01 1.000000000000e+00 0.000000000000e+00 3.209181164727e-05
8.400000000000e+01 1.000000000000e+00 0.000000000000e+00 3.470877426275e-05
8.500000000000e+01 1.000000000000e+00 0.000000000000e+00 3.818719546755e-05
8.600000000000e+01 1.000000000000e+00 0.000000000000e+00 4.248775873777e-05
8.700000000000e+01 1.000000000000e+00 0.000000000000e+00 4.749185534900e-05
8.800000000000e+01 1.000000000000e+00 0.000000000000e+00 5.297841373917e-05
8.900000000000e+01 1.000000000000e+00 0.000000000000e+00 5.862266682775e-05
9.000000000000e+01 1.000000000000e+00 0.000000000000e+00 6.402944579995e-05
9.100000000000e+01 1.000000000000e+00 0.000000000000e+00 6.880248574757e-05
9.200000000000e+01 1.000000000000e+00 0.000000000000e+00 7.263387329308e-05
9.300000000000e+01 1.000000000000e+00 0.000000000000e+00 7.538395895717e-05
9.400000000000e+01 1.000000000000e+00 0.000000000000e+00 7.712247239140e-05
9.500000000000e+01 1.000000000000e+00 0.000000000000e+00 7.811830984138e-05
9.600000000000e+01 1.000000000000e+00 0.000000000000e+00 7.878870348797e-05
9.700000000000e+01 1.000000000000e+00 0.000000000000e+00 7.963398369440e-05
9.800000000000e+01 1.000000000000e+00 0.000000000000e+00 8.118442648845e-05
9.900000000000e+01 1.000000000000e+00 0.000000000000e+00 8.397411790623e-05
1.000000000000e+02 1.000000000000e+00 0.000000000000e+00 8.574543660365e-05
0.000000000000e+00 2.000000000000e+00 0.000000000000e+00 2.186683516020e-04
1.000000000000e+00 2.000000000000e+00 0.000000000000e+00 2.114304889552e-04
2.000000000000e+00 2.000000000000e+00 0.000000000000e+00 1.965444405038e-04
3.000000000000e+00 2.000000000000e+00 0.000000000000e+00 1.813278059130e-04
4.000000000000e+00 2.000000000000e+00 0.000000000000e+00 1.665807293560e-04
5.000000000000e+00 2.000000000000e+00 0.000000000000e+00 1.527789062725e-04
6.000000000000e+00 2.000000000000e+00 0.000000000000e+00 1.401520425660e-04
7.000000000000e+00 2.000000000000e+00 0.000000000000e+00 1.287654722958e-04
8.000000000000e+00 2.000000000000e+00 0.000000000000e+00 1.185882935653e-04
9.000000000000e+00 2.000000000000e+00 0.000000000000e+00 1.095424942070e-04
1.000000000000e+01 2.000000000000e+00 0.000000000000e+00 1.015338754508e-04
1.100000000000e+01 2.000000000000e+00 0.000000000000e+00 9.446836032888e-05
1.200000000000e+01 2.000000000000e+00 0.000000000000e+00 8.825796647892e-05
1.300000000000e+01 2.000000000000e+00 0.000000000000e+00 8.282038075890e-05
1.400000000000e+01 2.000000000000e+00 0.000000000000e+00 7.807529678698e-05
1.500000000000e+01 2.000000000000e+00 0.000000000000e+00 7.393979515418e-05
1.600000000000e+01 2.000000000000e+00 0.000000000000e+00 7.032425948267e-05
1.700000000000e+01 2.000000000000e+00 0.000000000000e+00 6.712975014975e-05
1.800000000000e+01 2.000000000000e+00 0.000000000000e+00 6.424743360468e-05
1.900000000000e+01 2.000000000000e+00 0.000000000000e+00 6.156051961213e-05
2.000000000000e+01 2.000000000000e+00 0.000000000000e+00 5.894903745648e-05
2.100000000000e+01 2.000000000000e+00 0.000000000000e+00 5.629750239115e-05
2.200000000000e+01 2.000000000000e+00 0.000000000000e+00 5.350496236272e-05
2.300000000000e+01 2.000000000000e+00 0.000000000000e+00 5.049610480517e-05
2.400000000000e+01 2.000000000000e+00 0.000000000000e+00 4.723128631053e-05
2.500000000000e+01 2.000000000000e+00 0.000000000000e+00 4.371292642833e-05
2.600000000000e+01 2.000000000000e+00 0.000000000000e+00 3.998606140140e-05
2.700000000000e+01 2.000000000000e+00 0.000000000000e+00 3.613209426625e-05
2.800000000000e+01 2.000000000000e+00 0.000000000000e+00 3.225658392875e-05
2.900000000000e+01 2.000000000000e+00 0.000000000000e+00 2.847361726093e-05
3.000000000000e+01 2.000000000000e+00 0.000000000000e+00 2.489020862890e-05
3.100000000000e+01 2.000000000000e+00 0.000000000000e+00 2.159392502593e-05
3.200000000000e+01 2.000000000000e+00 0.000000000000e+00 1.864572398475e-05
3.300000000000e+01 2.000000000000e+00 0.000000000000e+00 1.607838906230e-05
3.400000000000e+01 2.000000000000e+00 0.000000000000e+00 1.389958545772e-05
3.500000000000e+01 2.000000000000e+00 0.000000000000e+00 1.209782694313e-05
3.600000000000e+01 2.000000000000e+00 0.000000000000e+00 1.064959183261e-05
3.700000000000e+01 2.000000000000e+00 0.000000000000e+00 9.526245461145e-06
3.800000000000e+01 2.000000000000e+00 0.000000000000e+00 8.700035679303e-06
3.900000000000e+01 2.000000000000e+00 0.000000000000e+00 8.149001059120e-06
4.000000000000e+01 2.000000000000e+00 0.000000000000e+00 7.861056511112e-06
4.100000000000e+01 2.000000000000e+00 0.000000000000e+00 7.837782244940e-06
4.200000000000e+01 2.000000000000e+00 0.000000000000e+00 8.098572571035e-06
4.300000000000e+01 2.000000000000e+00 0.000000000000e+00 8.685831939765e-06
4.400000000000e+01 2.000000000000e+00 0.000000000000e+00 9.671822259285e-06
4.500000000000e+01 2.000000000000e+00 0.000000000000e+00 1.116746947367e-05
4.600000000000e+01 2.000000000000e+00 0.000000000000e+00 1.333271547180e-05
4.700000000000e+01 2.000000000000e+00 0.000000000000e+00 1.638653124515e-05
4.800000000000e+01 2.000000000000e+00 0.000000000000e+00 2.061217806935e-05
4.900000000000e+01 2.000000000000e+00 0.000000000000e+00 2.634977889757e-05
5.000000000000e+01 2.000000000000e+00 0.000000000000e+00 3.396485564525e-05
5.100000000000e+01 2.000000000000e+00 0.000000000000e+00 4.378108561342e-05
5.200000000000e+01 2.000000000000e+00 0.000000000000e+00 5.597260329497e-05
5.300000000000e+01 2.000000000000e+00 0.000000000000e+00 7.042922004240e-05
5.400000000000e+01 2.000000000000e+00 0.000000000000e+00 8.663421392193e-05
5.500000000000e+01 2.000000000000e+00 0.000000000000e+00 1.036153851078e-04
5.600000000000e+01 2.000000000000e+00 0.000000000000e+00 1.200252315160e-04
5.700000000000e+01 2.000000000000e+00 0.000000000000e+00 1.343630547587e-04
5.800000000000e+01 2.000000000000e+00 0.000000000000e+00 1.452843653488e-04
5.900000000000e+01 2.000000000000e+00 0.000000000000e+00 1.518906365098e-04
6.000000000000e+01 2.000000000000e+00 0.000000000000e+00 1.538931421780e-04
6.100000000000e+01 2.000000000000e+00 0.000000000000e+00 1.516016409575e-04
6.200000000000e+01 2.000000000000e+00 0.000000000000e+00 1.457659102992e-04
6.300000000000e+01 2.000000000000e+00 0.000000000000e+00 1.373495747987e-04
6.400000000000e+01 2.000000000000e+00 0.000000000000e+00 1.273198425942e-04
6.500000000000e+01 2.000000000000e+00 0.000000000000e+00 1.165052654507e-04
6.600000000000e+01 2.000000000000e+00 0.000000000000e+00 1.055334135140e-04
6.700000000000e+01 2.000000000000e+00 0.000000000000e+00 9.483203953510e-05
6.800000000000e+01 2.000000000000e+00 0.000000000000e+00 8.466671350347e-05
6.900000000000e+01 2.000000000000e+00 0.000000000000e+00 7.519031989385e-05
7.000000000000e+01 2.000000000000e+00 0.000000000000e+00 6.648785763152e-05
7.100000000000e+01 2.000000000000e+00 0.000000000000e+00 5.860845343502e-05
7.200000000000e+01 2.000000000000e+00 0.000000000000e+00 5.158312868947e-05
7.300000000000e+01 2.000000000000e+00 0.000000000000e+00 4.543115668450e-05
7.400000000000e+01 2.000000000000e+00 0.000000000000e+00 4.015990592960e-05
7.500000000000e+01 2.000000000000e+00 0.000000000000e+00 3.576313538815e-05
7.600000000000e+01 2.000000000000e+00 0.000000000000e+00 3.222128337945e-05
7.700000000000e+01 2.000000000000e+00 0.000000000000e+00 2.950518243455e-05
7.800000000000e+01 2.000000000000e+00 0.000000000000e+00 2.758272224797e-05
7.900000000000e+01 2.000000000000e+00 0.000000000000e+00 2.642684093413e-05
8.000000000000e+01 2.000000000000e+00 0.000000000000e+00 2.602289294500e-05
8.100000000000e+01 2.000000000000e+00 0.000000000000e+00 2.637355544775e-05
8.200000000000e+01 2.000000000000e+00 0.000000000000e+00 2.749954920785e-05
8.300000000000e+01 2.000000000000e+00 0.000000000000e+00 2.943436098965e-05
8.400000000000e+01 2.000000000000e+00 0.000000000000e+00 3.221109625217e-05
8.500000000000e+01 2.000000000000e+00 0.000000000000e+00 3.584027732403e-05
8.600000000000e+01 2.000000000000e+00 0.000000000000e+00 4.027980937640e-05
8.700000000000e+01 2.000000000000e+00 0.000000000000e+00 4.540301438320e-05
8.800000000000e+01 2.000000000000e+00 0.000000000000e+00 5.097653567948e-05
8.900000000000e+01 2.000000000000e+00 0.000000000000e+00 5.666352383990e-05
9.000000000000e+01 2.000000000000e+00 0.000000000000e+00 6.206389373435e-05
9.100000000000e+01 2.000000000000e+00 0.000000000000e+00 6.679018009810e-05
9.200000000000e+01 2.000000000000e+00 0.000000000000e+00 7.055921328048e-05
9.300000000000e+01 2.000000000000e+00 0.000000000000e+00 7.326774335575e-05
9.400000000000e+01 2.000000000000e+00 0.000000000000e+00 7.502431689967e-05
9.500000000000e+01 2.000000000000e+00 0.000000000000e+00 7.612954182040e-05
9.600000000000e+01 2.000000000000e+00 0.000000000000e+00 7.702013318862e-05
9.700000000000e+01 2.000000000000e+00 0.000000000000e+00 7.820474641165e-05
9.800000000000e+01 2.000000000000e+00 0.000000000000e+00 8.021648822125e-05
9.900000000000e+01 2.000000000000e+00 0.000000000000e+00 8.359371117793e-05
1.000000000000e+02 2.000000000000e+00 0.000000000000e+00 8.569118508725e-05
0.000000000000e+00 3.000000000000e+00 0.000000000000e+00 2.165203562460e-04
1.000000000000e+00 3.000000000000e+00 0.000000000000e+00 2.099905525602e-04
2.000000000000e+00 3.000000000000e+00 0.000000000000e+00 1.964339814705e-04
3.000000000000e+00 3.000000000000e+00 0.000000000000e+00 1.823378517313e-04
4.000000000000e+00 3.000000000000e+00 0.000000000000e+00 1.684538886935e-04
5.000000000000e+00 3.000000000000e+00 0.000000000000e+00 1.552488104790e-04
6.000000000000e+00 3.000000000000e+00 0.000000000000e+00 1.429698404250e-04
7.000000000000e+00 3.000000000000e+00 0.000000000000e+00 1.317147221760e-04
8.000000000000e+00 3.000000000000e+00 0.000000000000e+00 1.214911231590e-04
9.000000000000e+00 3.000000000000e+00 0.000000000000e+00 1.122598750990e-04
1.000000000000e+01 3.000000000000e+00 0.000000000000e+00 1.039622492932e-04
1.100000000000e+01 3.000000000000e+00 0.000000000000e+00 9.653422675055e-05
1.200000000000e+01 3.000000000000e+00 0.000000000000e+00 8.991160324835e-05
1.300000000000e+01 3.000000000000e+00 0.000000000000e+00 8.402960099113e-05
1.400000000000e+01 3.000000000000e+00 0.000000000000e+00 7.881997134315e-05
1.500000000000e+01 3.000000000000e+00 0.000000000000e+00 7.420770971045e-05
1.600000000000e+01 3.000000000000e+00 0.000000000000e+00 7.010870144978e-05
1.700000000000e+01 3.000000000000e+00 0.000000000000e+00 6.642902046780e-05
1.800000000000e+01 3.000000000000e+00 0.000000000000e+00 6.306624390585e-05
1.900000000000e+01 3.000000000000e+00 0.000000000000e+00 5.991295327203e-05
2.000000000000e+01 3.000000000000e+00 0.000000000000e+00 5.686242249252e-05
2.100000000000e+01 3.000000000000e+00 0.000000000000e+00 5.381620571907e-05
2.200000000000e+01 3.000000000000e+00 0.000000000000e+00 5.069287208577e-05
2.300000000000e+01 3.000000000000e+00 0.000000000000e+00 4.743657093340e-05
2.400000000000e+01 3.000000000000e+00 0.000000000000e+00 4.402367231560e-05
2.500000000000e+01 3.000000000000e+00 0.000000000000e+00 4.046569744465e-05
2.600000000000e+01 3.000000000000e+00 0.000000000000e+00 3.680732165100e-05
2.700000000000e+01 3.000000000000e+00 0.000000000000e+00 3.311934266760e-05
2.800000000000e+01 3.000000000000e+00 0.000000000000e+00 2.948781902763e-05
2.900000000000e+01 3.000000000000e+00 0.000000000000e+00 2.600160370453e-05
3.000000000000e+01 3.000000000000e+00 0.000000000000e+00 2.274082724815e-05
3.100000000000e+01 3.000000000000e+00 0.000000000000e+00 1.976842562835e-05
3.200000000000e+01 3.000000000000e+00 0.000000000000e+00 1.712580172415e-05
3.300000000000e+01 3.000000000000e+00 0.000000000000e+00 1.483258367300e-05
3.400000000000e+01 3.000000000000e+00 0.000000000000e+00 1.288958814940e-05
3.500000000000e+01 3.000000000000e+00 0.000000000000e+00 1.128370701710e-05
3.600000000000e+01 3.000000000000e+00 0.000000000000e+00 9.993488828817e-06
3.700000000000e+01 3.000000000000e+00 0.000000000000e+00 8.994523692350e-06
3.800000000000e+01 3.000000000000e+00 0.000000000000e+00 8.264176354177e-06
3.900000000000e+01 3.000000000000e+00 0.000000000000e+00 7.785612963758e-06
4.000000000000e+01 3.000000000000e+00 0.000000000000e+00 7.551369805907e-06
4.100000000000e+01 3.000000000000e+00 0.000000000000e+00 7.566912566633e-06
4.200000000000e+01 3.000000000000e+00 0.000000000000e+00 7.854752893615e-06
4.300000000000e+01 3.000000000000e+00 0.000000000000e+00 8.459736685313e-06
4.400000000000e+01 3.000000000000e+00 0.000000000000e+00 9.456065200007e-06
4.500000000000e+01 3.000000000000e+00 0.000000000000e+00 1.095634850645e-05
4.600000000000e+01 3.000000000000e+00 0.000000000000e+00 1.312230536865e-05
4.700000000000e+01 3.000000000000e+00 0.000000000000e+00 1.617529223478e-05
4.800000000000e+01 3.000000000000e+00 0.000000000000e+00 2.040235231495e-05
4.900000000000e+01 3.000000000000e+00 0.000000000000e+00 2.614996837192e-05
5.000000000000e+01 3.000000000000e+00 0.000000000000e+00 3.379424177540e-05
5.100000000000e+01 3.000000000000e+00 0.000000000000e+00 4.367559697212e-05
5.200000000000e+01 3.000000000000e+00 0.000000000000e+00 5.599269379635e-05
5.300000000000e+01 3.000000000000e+00 0.000000000000e+00 7.066754459472e-05
5.400000000000e+01 3.000000000000e+00 0.000000000000e+00 8.721951983063e-05
5.500000000000e+01 3.000000000000e+00 0.000000000000e+00 1.047073320854e-04
5.600000000000e+01 3.000000000000e+00 0.000000000000e+00 1.217953597588e-04
5.700000000000e+01 3.000000000000e+00 0.000000000000e+00 1.369611901415e-04
5.800000000000e+01 3.000000000000e+00 0.000000000000e+00 1.487967239828e-04
5.900000000000e+01 3.000000000000e+00 0.000000000000e+00 1.563022338483e-04
6.000000000000e+01 3.000000000000e+00 0.000000000000e+00 1.590683499830e-04
6.100000000000e+01 3.000000000000e+00 0.000000000000e+00 1.572910989110e-04
6.200000000000e+01 3.000000000000e+00 0.000000000000e+00 1.516383236820e-04
6.300000000000e+01 3.000000000000e+00 0.000000000000e+00 1.430386364120e-04
6.400000000000e+01 3.000000000000e+00 0.000000000000e+00 1.324735290313e-04
6.500000000000e+01 3.000000000000e+00 0.000000000000e+00 1.208271500460e-04
6.600000000000e+01 3.000000000000e+00 0.000000000000e+00 1.088105993558e-04
6.700000000000e+01 3.000000000000e+00 0.000000000000e+00 9.694876819880e-05
6.800000000000e+01 3.000000000000e+00 0.000000000000e+00 8.560515904960e-05
6.900000000000e+01 3.000000000000e+00 0.000000000000e+00 7.502079472495e-05
7.000000000000e+01 3.000000000000e+00 0.000000000000e+00 6.535072595382e-05
7.100000000000e+01 3.000000000000e+00 0.000000000000e+00 5.669035606257e-05
7.200000000000e+01 3.000000000000e+00 0.000000000000e+00 4.909081503900e-05
7.300000000000e+01 3.000000000000e+00 0.000000000000e+00 4.256678253205e-05
7.400000000000e+01 3.000000000000e+00 0.000000000000e+00 3.710143127880e-05
7.500000000000e+01 3.000000000000e+00 0.000000000000e+00 3.265220256100e-05
7.600000000000e+01 3.000000000000e+00 0.000000000000e+00 2.915905480255e-05
7.700000000000e+01 3.000000000000e+00 0.000000000000e+00 2.655482294245e-05
7.800000000000e+01 3.000000000000e+00 0.000000000000e+00 2.477615590115e-05
7.900000000000e+01 3.000000000000e+00 0.000000000000e+00 2.377327893662e-05
8.000000000000e+01 3.000000000000e+00 0.000000000000e+00 2.351715942467e-05
8.100000000000e+01 3.000000000000e+00 0.000000000000e+00 2.400298898173e-05
8.200000000000e+01 3.000000000000e+00 0.000000000000e+00 2.524886823533e-05
8.300000000000e+01 3.000000000000e+00 0.000000000000e+00 2.728820597120e-05
8.400000000000e+01 3.000000000000e+00 0.000000000000e+00 3.015408504987e-05
8.500000000000e+01 3.000000000000e+00 0.000000000000e+00 3.385459186080e-05
8.600000000000e+01 3.000000000000e+00 0.000000000000e+00 3.834088778835e-05
8.700000000000e+01 3.000000000000e+00 0.000000000000e+00 4.347499294115e-05
8.800000000000e+01 3.000000000000e+00 0.000000000000e+00 4.901030249443e-05
8.900000000000e+01 3.000000000000e+00 0.000000000000e+00 5.460060537480e-05