VARIABLES = X,Y,Z,PERMEABILITY
ZONE T = DEFAULT, N = 40401, E = 40000, F = FEPOINT, ET = QUADRILATERAL
0.000000000000e+00 0.000000000000e+00 0.000000000000e+00 1.615701410680e-05
1.000000000000e+00 0.000000000000e+00 0.000000000000e+00 1.590333337780e-05
2.000000000000e+00 0.000000000000e+00 0.000000000000e+00 1.349043119185e-05
3.000000000000e+00 0.000000000000e+00 0.000000000000e+00 1.515806224470e-05
4.000000000000e+00 0.000000000000e+00 0.000000000000e+00 1.443446658992e-05
5.000000000000e+00 0.000000000000e+00 0.000000000000e+00 1.039550676582e-05
6.000000000000e+00 0.000000000000e+00 0.000000000000e+00 1.658890449750e-05
7.000000000000e+00 0.000000000000e+00 0.000000000000e+00 3.455426052180e-05
8.000000000000e+00 0.000000000000e+00 0.000000000000e+00 3.130651033750e-05
9.000000000000e+00 0.000000000000e+00 0.000000000000e+00 1.118456981958e-05
1.000000000000e+01 0.000000000000e+00 0.000000000000e+00 3.952923542360e-06
1.100000000000e+01 0.000000000000e+00 0.000000000000e+00 1.341469817650e-06
1.200000000000e+01 0.000000000000e+00 0.000000000000e+00 2.117119092855e-06
1.300000000000e+01 0.000000000000e+00 0.000000000000e+00 3.792355871350e-06
1.400000000000e+01 0.000000000000e+00 0.000000000000e+00 7.201059033805e-06
1.500000000000e+01 0.000000000000e+00 0.000000000000e+00 2.638854974044e-05
1.600000000000e+01 0.000000000000e+00 0.000000000000e+00 7.629857328345e-05
1.700000000000e+01 0.000000000000e+00 0.000000000000e+00 6.366748511210e-05
1.800000000000e+01 0.000000000000e+00 0.000000000000e+00 1.594454726170e-05
1.900000000000e+01 0.000000000000e+00 0.000000000000e+00 9.333830145805e-06
2.000000000000e+01 0.000000000000e+00 0.000000000000e+00 1.222712983871e-05
2.100000000000e+01 0.000000000000e+00 0.000000000000e+00 2.544985648705e-05
2.200000000000e+01 0.000000000000e+00 0.000000000000e+00 2.499536932945e-05
2.300000000000e+01 0.000000000000e+00 0.000000000000e+00 1.455680502020e-05
2.400000000000e+01 0.000000000000e+00 0.000000000000e+00 8.683482990385e-06
2.500000000000e+01 0.000000000000e+00 0.000000000000e+00 5.038725958480e-06
2.600000000000e+01 0.000000000000e+00 0.000000000000e+00 4.449595390840e-06
2.700000000000e+01 0.000000000000e+00 0.000000000000e+00 1.004225340075e-05
2.800000000000e+01 0.000000000000e+00 0.000000000000e+00 1.348586642615e-05
2.900000000000e+01 0.000000000000e+00 0.000000000000e+00 1.388706312095e-05
3.000000000000e+01 0.000000000000e+00 0.000000000000e+00 2.375422288915e-05
3.100000000000e+01 0.000000000000e+00 0.000000000000e+00 1.946977333468e-05
3.200000000000e+01 0.000000000000e+00 0.000000000000e+00 1.032495562893e-05
3.300000000000e+01 0.000000000000e+00 0.000000000000e+00 1.486179853930e-05
3.400000000000e+01 0.000000000000e+00 0.000000000000e+00 1.040449394516e-05
3.500000000000e+01 0.000000000000e+00 0.000000000000e+00 3.714169552371e-05
3.600000000000e+01 0.000000000000e+00 0.000000000000e+00 1.324850949070e-04
3.700000000000e+01 0.000000000000e+00 0.000000000000e+00 2.972233763595e-04
3.800000000000e+01 0.000000000000e+00 0.000000000000e+00 3.356872327495e-04
3.900000000000e+01 0.000000000000e+00 0.000000000000e+00 4.795107747795e-04
4.000000000000e+01 0.000000000000e+00 0.000000000000e+00 6.137886649365e-04
4.100000000000e+01 0.000000000000e+00 0.000000000000e+00 3.330732999640e-04
4.200000000000e+01 0.000000000000e+00 0.000000000000e+00 1.769670217630e-04
4.300000000000e+01 0.000000000000e+00 0.000000000000e+00 1.413366872514e-03
4.400000000000e+01 0.000000000000e+00 0.000000000000e+00 2.425714146580e-03
4.500000000000e+01 0.000000000000e+00 0.000000000000e+00 2.395819710675e-03
4.600000000000e+01 0.000000000000e+00 0.000000000000e+00 1.567344582740e-03
4.700000000000e+01 0.000000000000e+00 0.000000000000e+00 3.743450765855e-04
4.800000000000e+01 0.000000000000e+00 0.000000000000e+00 9.604049376495e-05
4.900000000000e+01 0.000000000000e+00 0.000000000000e+00 4.381957579030e-05
5.000000000000e+01 0.000000000000e+00 0.000000000000e+00 4.798458900275e-05
5.100000000000e+01 0.000000000000e+00 0.000000000000e+00 4.561299316835e-05
5.200000000000e+01 0.000000000000e+00 0.000000000000e+00 5.377188124425e-05
5.300000000000e+01 0.000000000000e+00 0.000000000000e+00 1.225498767993e-04
5.400000000000e+01 0.000000000000e+00 0.000000000000e+00 1.253491825731e-04
5.500000000000e+01 0.000000000000e+00 0.000000000000e+00 4.598407781385e-05
5.600000000000e+01 0.000000000000e+00 0.000000000000e+00 3.557830441255e-05
5.700000000000e+01 0.000000000000e+00 0.000000000000e+00 4.513862694570e-05
5.800000000000e+01 0.000000000000e+00 0.000000000000e+00 5.626754168875e-05
5.900000000000e+01 0.000000000000e+00 0.000000000000e+00 7.135239590870e-05
6.000000000000e+01 0.000000000000e+00 0.000000000000e+00 1.497510287288e-04
6.100000000000e+01 0.000000000000e+00 0.000000000000e+00 1.561891537102e-04
6.200000000000e+01 0.000000000000e+00 0.000000000000e+00 1.273302966402e-04
6.300000000000e+01 0.000000000000e+00 0.000000000000e+00 1.657998693195e-04
6.400000000000e+01 0.000000000000e+00 0.000000000000e+00 1.657356743960e-04
6.500000000000e+01 0.000000000000e+00 0.000000000000e+00 1.219347860134e-04
6.600000000000e+01 0.000000000000e+00 0.000000000000e+00 6.449003687570e-05
6.700000000000e+01 0.000000000000e+00 0.000000000000e+00 7.119249470890e-05
6.800000000000e+01 0.000000000000e+00 0.000000000000e+00 7.206344766420e-05
6.900000000000e+01 0.000000000000e+00 0.000000000000e+00 3.756899337390e-05
7.000000000000e+01 0.000000000000e+00 0.000000000000e+00 2.398660082835e-05
7.100000000000e+01 0.000000000000e+00 0.000000000000e+00 3.323861526390e-05
7.200000000000e+01 0.000000000000e+00 0.000000000000e+00 4.946820727480e-05
7.300000000000e+01 0.000000000000e+00 0.000000000000e+00 6.709595948400e-05
7.400000000000e+01 0.000000000000e+00 0.000000000000e+00 3.873053428650e-05
7.500000000000e+01 0.000000000000e+00 0.000000000000e+00 4.533414334785e-06
7.600000000000e+01 0.000000000000e+00 0.000000000000e+00 1.980865868500e-06
7.700000000000e+01 0.000000000000e+00 0.000000000000e+00 3.693318986545e-06
7.800000000000e+01 0.000000000000e+00 0.000000000000e+00 3.180199237135e-06
7.900000000000e+01 0.000000000000e+00 0.000000000000e+00 3.582092580725e-07
8.000000000000e+01 0.000000000000e+00 0.000000000000e+00 2.980160262205e-07
8.100000000000e+01 0.000000000000e+00 0.000000000000e+00 2.412665351550e-07
8.200000000000e+01 0.000000000000e+00 0.000000000000e+00 2.329679387820e-07
8.300000000000e+01 0.000000000000e+00 0.000000000000e+00 7.546871180045e-07
8.400000000000e+01 0.000000000000e+00 0.000000000000e+00 1.196921149980e-06
8.500000000000e+01 0.000000000000e+00 0.000000000000e+00 6.134708630705e-06
8.600000000000e+01 0.000000000000e+00 0.000000000000e+00 1.350935853540e-05
8.700000000000e+01 0.000000000000e+00 0.000000000000e+00 1.504942167570e-05
8.800000000000e+01 0.000000000000e+00 0.000000000000e+00 2.765979191095e-05
8.900000000000e+01 0.000000000000e+00 0.000000000000e+00 4.885689542290e-05
9.000000000000e+01 0.000000000000e+00 0.000000000000e+00 1.542418208815e-04
9.100000000000e+01 0.000000000000e+00 0.000000000000e+00 4.359202958885e-04
9.200000000000e+01 0.000000000000e+00 0.000000000000e+00 4.496265349660e-04
9.300000000000e+01 0.000000000000e+00 0.000000000000e+00 1.996204662115e-04
9.400000000000e+01 0.000000000000e+00 0.000000000000e+00 9.195714880305e-05
9.500000000000e+01 0.000000000000e+00 0.000000000000e+00 5.874965389545e-05
9.600000000000e+01 0.000000000000e+00 0.000000000000e+00 4.178763201465e-05
9.700000000000e+01 0.000000000000e+00 0.000000000000e+00 1.733951151028e-05
9.800000000000e+01 0.000000000000e+00 0.000000000000e+00 7.800325636830e-06
9.900000000000e+01 0.000000000000e+00 0.000000000000e+00 1.086482764020e-05
1.000000000000e+02 0.000000000000e+00 0.000000000000e+00 1.760952395670e-05
1.010000000000e+02 0.000000000000e+00 0.000000000000e+00 1.831747984780e-05
1.020000000000e+02 0.000000000000e+00 0.000000000000e+00 1.140532236170e-05
1.030000000000e+02 0.000000000000e+00 0.000000000000e+00 6.275437078695e-06
1.040000000000e+02 0.000000000000e+00 0.000000000000e+00 2.136630025730e-06
1.050000000000e+02 0.000000000000e+00 0.000000000000e+00 4.481850491350e-06
1.060000000000e+02 0.000000000000e+00 0.000000000000e+00 5.118464309495e-06
1.070000000000e+02 0.000000000000e+00 0.000000000000e+00 4.473117713590e-06
1.080000000000e+02 0.000000000000e+00 0.000000000000e+00 6.606210783090e-06
1.090000000000e+02 0.000000000000e+00 0.000000000000e+00 6.460956819330e-06
1.100000000000e+02 0.000000000000e+00 0.000000000000e+00 7.456578436430e-06
1.110000000000e+02 0.000000000000e+00 0.000000000000e+00 6.868871795995e-06
1.120000000000e+02 0.000000000000e+00 0.000000000000e+00 4.850098904095e-06
1.130000000000e+02 0.000000000000e+00 0.000000000000e+00 5.782017696655e-06
1.140000000000e+02 0.000000000000e+00 0.000000000000e+00 3.034702972739e-06
1.150000000000e+02 0.000000000000e+00 0.000000000000e+00 3.544317579610e-07
1.160000000000e+02 0.000000000000e+00 0.000000000000e+00 1.899042274717e-07
1.170000000000e+02 0.000000000000e+00 0.000000000000e+00 8.526619237645e-08
1.180000000000e+02 0.000000000000e+00 0.000000000000e+00 5.919119383115e-08
1.190000000000e+02 0.000000000000e+00 0.000000000000e+00 6.363252206145e-08
1.200000000000e+02 0.000000000000e+00 0.000000000000e+00 8.057384164665e-08
1.210000000000e+02 0.000000000000e+00 0.000000000000e+00 4.848258994030e-08
1.220000000000e+02 0.000000000000e+00 0.000000000000e+00 9.711561879015e-08
1.230000000000e+02 0.000000000000e+00 0.000000000000e+00 4.051527939105e-07
1.240000000000e+02 0.000000000000e+00 0.000000000000e+00 1.971825633890e-06
1.250000000000e+02 0.000000000000e+00 0.000000000000e+00 1.479040692964e-05
1.260000000000e+02 0.000000000000e+00 0.000000000000e+00 2.105223914760e-05
1.270000000000e+02 0.000000000000e+00 0.000000000000e+00 1.261450404355e-05
1.280000000000e+02 0.000000000000e+00 0.000000000000e+00 1.674623391270e-05
1.290000000000e+02 0.000000000000e+00 0.000000000000e+00 5.239123141810e-05
1.300000000000e+02 0.000000000000e+00 0.000000000000e+00 1.839017350974e-04
1.310000000000e+02 0.000000000000e+00 0.000000000000e+00 5.883897771650e-04
1.320000000000e+02 0.000000000000e+00 0.000000000000e+00 1.263534100451e-03
1.330000000000e+02 0.000000000000e+00 0.000000000000e+00 8.871095472045e-04
1.340000000000e+02 0.000000000000e+00 0.000000000000e+00 9.009747002265e-05
1.350000000000e+02 0.000000000000e+00 0.000000000000e+00 2.573956987339e-05
1.360000000000e+02 0.000000000000e+00 0.000000000000e+00 1.433878227269e-05
1.370000000000e+02 0.000000000000e+00 0.000000000000e+00 2.399346295480e-05
1.380000000000e+02 0.000000000000e+00 0.000000000000e+00 5.378474293930e-05
1.390000000000e+02 0.000000000000e+00 0.000000000000e+00 6.480102517805e-05
1.400000000000e+02 0.000000000000e+00 0.000000000000e+00 5.545037491305e-05
1.410000000000e+02 0.000000000000e+00 0.000000000000e+00 3.892245596410e-05
1.420000000000e+02 0.000000000000e+00 0.000000000000e+00 1.910424588065e-05
1.430000000000e+02 0.000000000000e+00 0.000000000000e+00 1.520979508239e-05
1.440000000000e+02 0.000000000000e+00 0.000000000000e+00 5.600973155515e-06
1.450000000000e+02 0.000000000000e+00 0.000000000000e+00 9.228162860630e-06
1.460000000000e+02 0.000000000000e+00 0.000000000000e+00 1.766567642255e-05
1.470000000000e+02 0.000000000000e+00 0.000000000000e+00 1.425973385883e-05
1.480000000000e+02 0.000000000000e+00 0.000000000000e+00 1.101416700973e-05
1.490000000000e+02 0.000000000000e+00 0.000000000000e+00 1.120182334336e-05
1.500000000000e+02 0.000000000000e+00 0.000000000000e+00 7.163998059725e-06
1.510000000000e+02 0.000000000000e+00 0.000000000000e+00 8.192215308565e-06
1.520000000000e+02 0.000000000000e+00 0.000000000000e+00 7.850854263785e-06
1.530000000000e+02 0.000000000000e+00 0.000000000000e+00 4.109421870750e-06
1.540000000000e+02 0.000000000000e+00 0.000000000000e+00 3.080665380760e-06
1.550000000000e+02 0.000000000000e+00 0.000000000000e+00 2.716345636245e-06
1.560000000000e+02 0.000000000000e+00 0.000000000000e+00 2.542795423565e-06
1.570000000000e+02 0.000000000000e+00 0.000000000000e+00 2.228928568725e-06
1.580000000000e+02 0.000000000000e+00 0.000000000000e+00 1.568698980356e-06
1.590000000000e+02 0.000000000000e+00 0.000000000000e+00 7.891149071560e-07
1.600000000000e+02 0.000000000000e+00 0.000000000000e+00 7.974288736735e-07
1.610000000000e+02 0.000000000000e+00 0.000000000000e+00 5.059296942675e-07
1.620000000000e+02 0.000000000000e+00 0.000000000000e+00 9.111759908440e-07
1.630000000000e+02 0.000000000000e+00 0.000000000000e+00 8.417024313395e-07
1.640000000000e+02 0.000000000000e+00 0.000000000000e+00 2.676066616495e-07
1.650000000000e+02 0.000000000000e+00 0.000000000000e+00 1.843469223395e-07
1.660000000000e+02 0.000000000000e+00 0.000000000000e+00 1.870087913830e-07
1.670000000000e+02 0.000000000000e+00 0.000000000000e+00 1.335630681619e-07
1.680000000000e+02 0.000000000000e+00 0.000000000000e+00 2.991937999905e-07
1.690000000000e+02 0.000000000000e+00 0.000000000000e+00 1.192136616392e-06
1.700000000000e+02 0.000000000000e+00 0.000000000000e+00 1.269809222026e-06
1.710000000000e+02 0.000000000000e+00 0.000000000000e+00 4.182338538400e-07
1.720000000000e+02 0.000000000000e+00 0.000000000000e+00 2.897122316630e-07
1.730000000000e+02 0.000000000000e+00 0.000000000000e+00 2.619792487040e-07
1.740000000000e+02 0.000000000000e+00 0.000000000000e+00 2.120351066040e-07
1.750000000000e+02 0.000000000000e+00 0.000000000000e+00 2.020875183505e-07
1.760000000000e+02 0.000000000000e+00 0.000000000000e+00 1.076745365585e-07
1.770000000000e+02 0.000000000000e+00 0.000000000000e+00 8.259182868050e-08
1.780000000000e+02 0.000000000000e+00 0.000000000000e+00 1.025608400140e-07
1.790000000000e+02 0.000000000000e+00 0.000000000000e+00 2.872559366345e-07
1.800000000000e+02 0.000000000000e+00 0.000000000000e+00 6.106556625015e-07
1.810000000000e+02 0.000000000000e+00 0.000000000000e+00 5.870979890730e-07
1.820000000000e+02 0.000000000000e+00 0.000000000000e+00 8.548582187860e-07
1.830000000000e+02 0.000000000000e+00 0.000000000000e+00 2.327960820085e-06
1.840000000000e+02 0.000000000000e+00 0.000000000000e+00 5.056643838650e-06
1.850000000000e+02 0.000000000000e+00 0.000000000000e+00 9.607125374615e-06
1.860000000000e+02 0.000000000000e+00 0.000000000000e+00 7.381587847505e-06
1.870000000000e+02 0.000000000000e+00 0.000000000000e+00 1.760484157190e-06
1.880000000000e+02 0.000000000000e+00 0.000000000000e+00 8.388920874420e-07
1.890000000000e+02 0.000000000000e+00 0.000000000000e+00 6.595710647190e-07
1.900000000000e+02 0.000000000000e+00 0.000000000000e+00 1.224130981932e-06
1.910000000000e+02 0.000000000000e+00 0.000000000000e+00 7.169509152870e-06
1.920000000000e+02 0.000000000000e+00 0.000000000000e+00 9.637248450070e-06
1.930000000000e+02 0.000000000000e+00 0.000000000000e+00 1.655989055987e-05
1.940000000000e+02 0.000000000000e+00 0.000000000000e+00 1.812669091322e-05
1.950000000000e+02 0.000000000000e+00 0.000000000000e+00 7.467940846490e-06
1.960000000000e+02 0.000000000000e+00 0.000000000000e+00 3.944256647970e-06
1.970000000000e+02 0.000000000000e+00 0.000000000000e+00 1.919100140545e-06
1.980000000000e+02 0.000000000000e+00 0.000000000000e+00 9.394260912280e-07
1.990000000000e+02 0.000000000000e+00 0.000000000000e+00 3.294627452738e-06
2.000000000000e+02 0.000000000000e+00 0.000000000000e+00 5.902316980720e-06
0.000000000000e+00 1.000000000000e+00 0.000000000000e+00 2.191232839395e-05
1.000000000000e+00 1.000000000000e+00 0.000000000000e+00 1.783959049395e-05
2.000000000000e+00 1.000000000000e+00 0.000000000000e+00 1.469852002625e-05
3.000000000000e+00 1.000000000000e+00 0.000000000000e+00 1.499234308791e-05
4.000000000000e+00 1.000000000000e+00 0.000000000000e+00 1.338233572460e-05
5.000000000000e+00 1.000000000000e+00 0.000000000000e+00 2.006557207256e-05
6.000000000000e+00 1.000000000000e+00 0.000000000000e+00 2.634051162483e-05
7.000000000000e+00 1.000000000000e+00 0.000000000000e+00 4.208767250977e-05
8.000000000000e+00 1.000000000000e+00 0.000000000000e+00 4.191668883148e-05
9.000000000000e+00 1.000000000000e+00 0.000000000000e+00 1.585925284776e-05
1.000000000000e+01 1.000000000000e+00 0.000000000000e+00 4.329766471650e-06
1.100000000000e+01 1.000000000000e+00 0.000000000000e+00 1.382334687235e-06
1.200000000000e+01 1.000000000000e+00 0.000000000000e+00 1.412008732152e-06
1.300000000000e+01 1.000000000000e+00 0.000000000000e+00 3.630318242922e-06
1.400000000000e+01 1.000000000000e+00 0.000000000000e+00 9.338721317760e-06
1.500000000000e+01 1.000000000000e+00 0.000000000000e+00 2.159284534152e-05
1.600000000000e+01 1.000000000000e+00 0.000000000000e+00 5.561453068757e-05
1.700000000000e+01 1.000000000000e+00 0.000000000000e+00 4.633533387716e-05
1.800000000000e+01 1.000000000000e+00 0.000000000000e+00 1.083206612204e-05
1.900000000000e+01 1.000000000000e+00 0.000000000000e+00 7.674597223767e-06
2.000000000000e+01 1.000000000000e+00 0.000000000000e+00 1.019423950289e-05
2.100000000000e+01 1.000000000000e+00 0.000000000000e+00 2.072333410233e-05
2.200000000000e+01 1.000000000000e+00 0.000000000000e+00 2.005083889225e-05
2.300000000000e+01 1.000000000000e+00 0.000000000000e+00 1.178971802006e-05
2.400000000000e+01 1.000000000000e+00 0.000000000000e+00 8.459511585135e-06
2.500000000000e+01 1.000000000000e+00 0.000000000000e+00 4.750741518357e-06
2.600000000000e+01 1.000000000000e+00 0.000000000000e+00 3.323768493488e-06
2.700000000000e+01 1.000000000000e+00 0.000000000000e+00 7.437982805405e-06
2.800000000000e+01 1.000000000000e+00 0.000000000000e+00 2.151222631650e-05
2.900000000000e+01 1.000000000000e+00 0.000000000000e+00 3.296598140015e-05
3.000000000000e+01 1.000000000000e+00 0.000000000000e+00 3.627163176952e-05
3.100000000000e+01 1.000000000000e+00 0.000000000000e+00 2.807841685754e-05
3.200000000000e+01 1.000000000000e+00 0.000000000000e+00 2.262293949161e-05
3.300000000000e+01 1.000000000000e+00 0.000000000000e+00 2.287038108628e-05
3.400000000000e+01 1.000000000000e+00 0.000000000000e+00 1.168749073232e-05
3.500000000000e+01 1.000000000000e+00 0.000000000000e+00 2.192985915020e-05
3.600000000000e+01 1.000000000000e+00 0.000000000000e+00 8.254021739451e-05
3.700000000000e+01 1.000000000000e+00 0.000000000000e+00 2.324268099104e-04
3.800000000000e+01 1.000000000000e+00 0.000000000000e+00 2.770332472970e-04
3.900000000000e+01 1.000000000000e+00 0.000000000000e+00 3.838987348475e-04
4.000000000000e+01 1.000000000000e+00 0.000000000000e+00 4.410300548722e-04
4.100000000000e+01 1.000000000000e+00 0.000000000000e+00 2.057463298720e-04
4.200000000000e+01 1.000000000000e+00 0.000000000000e+00 2.039206147276e-04
4.300000000000e+01 1.000000000000e+00 0.000000000000e+00 1.229190620988e-03
4.400000000000e+01 1.000000000000e+00 0.000000000000e+00 2.071170883805e-03
4.500000000000e+01 1.000000000000e+00 0.000000000000e+00 1.984186971853e-03
4.600000000000e+01 1.000000000000e+00 0.000000000000e+00 1.196663571472e-03
4.700000000000e+01 1.000000000000e+00 0.000000000000e+00 2.933182928835e-04
4.800000000000e+01 1.000000000000e+00 0.000000000000e+00 8.782303800078e-05
4.900000000000e+01 1.000000000000e+00 0.000000000000e+00 2.654735542597e-05
5.000000000000e+01 1.000000000000e+00 0.000000000000e+00 3.351285583037e-05
5.100000000000e+01 1.000000000000e+00 0.000000000000e+00 4.040631299530e-05
5.200000000000e+01 1.000000000000e+00 0.000000000000e+00 5.650675158465e-05
5.300000000000e+01 1.000000000000e+00 0.000000000000e+00 1.418920546950e-04
5.400000000000e+01 1.000000000000e+00 0.000000000000e+00 1.349035643034e-04
5.500000000000e+01 1.000000000000e+00 0.000000000000e+00 4.059132498542e-05
5.600000000000e+01 1.000000000000e+00 0.000000000000e+00 5.429086617765e-05
5.700000000000e+01 1.000000000000e+00 0.000000000000e+00 6.239281321372e-05
5.800000000000e+01 1.000000000000e+00 0.000000000000e+00 5.418224748537e-05
5.900000000000e+01 1.000000000000e+00 0.000000000000e+00 5.869518935560e-05
6.000000000000e+01 1.000000000000e+00 0.000000000000e+00 9.647601314177e-05
6.100000000000e+01 1.000000000000e+00 0.000000000000e+00 1.185203175208e-04
6.200000000000e+01 1.000000000000e+00 0.000000000000e+00 1.160871601891e-04
6.300000000000e+01 1.000000000000e+00 0.000000000000e+00 2.080267972705e-04
6.400000000000e+01 1.000000000000e+00 0.000000000000e+00 2.801020794843e-04
6.500000000000e+01 1.000000000000e+00 0.000000000000e+00 1.826115420288e-04
6.600000000000e+01 1.000000000000e+00 0.000000000000e+00 7.853035468953e-05
6.700000000000e+01 1.000000000000e+00 0.000000000000e+00 6.310975106775e-05
6.800000000000e+01 1.000000000000e+00 0.000000000000e+00 4.641520567315e-05
6.900000000000e+01 1.000000000000e+00 0.000000000000e+00 2.994439602020e-05
7.000000000000e+01 1.000000000000e+00 0.000000000000e+00 2.358040859393e-05
7.100000000000e+01 1.000000000000e+00 0.000000000000e+00 2.459388724825e-05
7.200000000000e+01 1.000000000000e+00 0.000000000000e+00 2.684610277522e-05
7.300000000000e+01 1.000000000000e+00 0.000000000000e+00 3.811803107887e-05
7.400000000000e+01 1.000000000000e+00 0.000000000000e+00 2.552881197962e-05
7.500000000000e+01 1.000000000000e+00 0.000000000000e+00 5.638112445595e-06
7.600000000000e+01 1.000000000000e+00 0.000000000000e+00 3.403313153617e-06
7.700000000000e+01 1.000000000000e+00 0.000000000000e+00 3.962472445973e-06
7.800000000000e+01 1.000000000000e+00 0.000000000000e+00 2.482981605188e-06
7.900000000000e+01 1.000000000000e+00 0.000000000000e+00 2.685738553283e-07
8.000000000000e+01 1.000000000000e+00 0.000000000000e+00 3.018054029930e-07
8.100000000000e+01 1.000000000000e+00 0.000000000000e+00 2.732798277623e-07
8.200000000000e+01 1.000000000000e+00 0.000000000000e+00 2.645540852890e-07
8.300000000000e+01 1.000000000000e+00 0.000000000000e+00 8.488432539745e-07
8.400000000000e+01 1.000000000000e+00 0.000000000000e+00 1.303142543385e-06
8.500000000000e+01 1.000000000000e+00 0.000000000000e+00 4.566283821930e-06
8.600000000000e+01 1.000000000000e+00 0.000000000000e+00 8.558057524870e-06
8.700000000000e+01 1.000000000000e+00 0.000000000000e+00 9.069607114765e-06
8.800000000000e+01 1.000000000000e+00 0.000000000000e+00 1.590153161403e-05
8.900000000000e+01 1.000000000000e+00 0.000000000000e+00 2.709664388339e-05
9.000000000000e+01 1.000000000000e+00 0.000000000000e+00 9.466933323000e-05
9.100000000000e+01 1.000000000000e+00 0.000000000000e+00 2.964711700350e-04
9.200000000000e+01 1.000000000000e+00 0.000000000000e+00 3.926474662152e-04
9.300000000000e+01 1.000000000000e+00 0.000000000000e+00 2.549338156842e-04
9.400000000000e+01 1.000000000000e+00 0.000000000000e+00 1.113699244201e-04
9.500000000000e+01 1.000000000000e+00 0.000000000000e+00 5.085425017090e-05
9.600000000000e+01 1.000000000000e+00 0.000000000000e+00 2.934023472280e-05
9.700000000000e+01 1.000000000000e+00 0.000000000000e+00 1.257006902729e-05
9.800000000000e+01 1.000000000000e+00 0.000000000000e+00 8.426028266168e-06
9.900000000000e+01 1.000000000000e+00 0.000000000000e+00 9.614596010497e-06
1.000000000000e+02 1.000000000000e+00 0.000000000000e+00 1.220153315679e-05
1.010000000000e+02 1.000000000000e+00 0.000000000000e+00 1.362062056531e-05
1.020000000000e+02 1.000000000000e+00 0.000000000000e+00 9.480912049272e-06
1.030000000000e+02 1.000000000000e+00 0.000000000000e+00 7.840859177332e-06
1.040000000000e+02 1.000000000000e+00 0.000000000000e+00 5.147265767250e-06
1.050000000000e+02 1.000000000000e+00 0.000000000000e+00 4.387964548643e-06
1.060000000000e+02 1.000000000000e+00 0.000000000000e+00 4.638954858295e-06
1.070000000000e+02 1.000000000000e+00 0.000000000000e+00 4.390113462460e-06
1.080000000000e+02 1.000000000000e+00 0.000000000000e+00 5.206064133842e-06
1.090000000000e+02 1.000000000000e+00 0.000000000000e+00 4.403920544227e-06
1.100000000000e+02 1.000000000000e+00 0.000000000000e+00 5.170585485120e-06
1.110000000000e+02 1.000000000000e+00 0.000000000000e+00 5.200007122615e-06
1.120000000000e+02 1.000000000000e+00 0.000000000000e+00 4.019598012665e-06
1.130000000000e+02 1.000000000000e+00 0.000000000000e+00 5.065426673245e-06
1.140000000000e+02 1.000000000000e+00 0.000000000000e+00 2.859886446120e-06
1.150000000000e+02 1.000000000000e+00 0.000000000000e+00 3.288199343080e-07
1.160000000000e+02 1.000000000000e+00 0.000000000000e+00 1.992861309191e-07
1.170000000000e+02 1.000000000000e+00 0.000000000000e+00 9.406514665457e-08
1.180000000000e+02 1.000000000000e+00 0.000000000000e+00 6.071734736562e-08
1.190000000000e+02 1.000000000000e+00 0.000000000000e+00 6.261688813842e-08
1.200000000000e+02 1.000000000000e+00 0.000000000000e+00 1.004233286611e-07
1.210000000000e+02 1.000000000000e+00 0.000000000000e+00 2.852723788444e-07
1.220000000000e+02 1.000000000000e+00 0.000000000000e+00 6.319648564198e-07
1.230000000000e+02 1.000000000000e+00 0.000000000000e+00 1.030210069660e-06
1.240000000000e+02 1.000000000000e+00 0.000000000000e+00 2.195182538785e-06
1.250000000000e+02 1.000000000000e+00 0.000000000000e+00 1.050752044603e-05
1.260000000000e+02 1.000000000000e+00 0.000000000000e+00 1.791023269040e-05
1.270000000000e+02 1.000000000000e+00 0.000000000000e+00 2.381427715997e-05
1.280000000000e+02 1.000000000000e+00 0.000000000000e+00 3.518674399348e-05
1.290000000000e+02 1.000000000000e+00 0.000000000000e+00 9.596251874555e-05
1.300000000000e+02 1.000000000000e+00 0.000000000000e+00 2.579430329102e-04
1.310000000000e+02 1.000000000000e+00 0.000000000000e+00 4.687762906675e-04
1.320000000000e+02 1.000000000000e+00 0.000000000000e+00 1.014281512772e-03
1.330000000000e+02 1.000000000000e+00 0.000000000000e+00 8.458022665735e-04
1.340000000000e+02 1.000000000000e+00 0.000000000000e+00 1.422368263678e-04
1.350000000000e+02 1.000000000000e+00 0.000000000000e+00 3.201949603900e-05
1.360000000000e+02 1.000000000000e+00 0.000000000000e+00 1.658178880522e-05
1.370000000000e+02 1.000000000000e+00 0.000000000000e+00 1.776237914245e-05
1.380000000000e+02 1.000000000000e+00 0.000000000000e+00 4.238609870505e-05
1.390000000000e+02 1.000000000000e+00 0.000000000000e+00 5.278121040717e-05
1.400000000000e+02 1.000000000000e+00 0.000000000000e+00 4.943108100705e-05
1.410000000000e+02 1.000000000000e+00 0.000000000000e+00 4.074276996538e-05
1.420000000000e+02 1.000000000000e+00 0.000000000000e+00 1.749119636246e-05
1.430000000000e+02 1.000000000000e+00 0.000000000000e+00 1.014783720329e-05
1.440000000000e+02 1.000000000000e+00 0.000000000000e+00 4.627882092570e-06
1.450000000000e+02 1.000000000000e+00 0.000000000000e+00 7.165932822782e-06
1.460000000000e+02 1.000000000000e+00 0.000000000000e+00 1.268396448226e-05
1.470000000000e+02 1.000000000000e+00 0.000000000000e+00 1.323220002762e-05
1.480000000000e+02 1.000000000000e+00 0.000000000000e+00 1.355905468226e-05
1.490000000000e+02 1.000000000000e+00 0.000000000000e+00 1.138417303806e-05
1.500000000000e+02 1.000000000000e+00 0.000000000000e+00 7.071936460635e-06
1.510000000000e+02 1.000000000000e+00 0.000000000000e+00 6.320792891050e-06
1.520000000000e+02 1.000000000000e+00 0.000000000000e+00 4.831883966255e-06
1.530000000000e+02 1.000000000000e+00 0.000000000000e+00 3.060796199075e-06
1.540000000000e+02 1.000000000000e+00 0.000000000000e+00 2.559973357288e-06
1.550000000000e+02 1.000000000000e+00 0.000000000000e+00 3.085868762668e-06
1.560000000000e+02 1.000000000000e+00 0.000000000000e+00 3.026774521583e-06
1.570000000000e+02 1.000000000000e+00 0.000000000000e+00 1.772829265000e-06
1.580000000000e+02 1.000000000000e+00 0.000000000000e+00 1.753581011638e-06
1.590000000000e+02 1.000000000000e+00 0.000000000000e+00 1.725495981590e-06
1.600000000000e+02 1.000000000000e+00 0.000000000000e+00 1.796890463547e-06
1.610000000000e+02 1.000000000000e+00 0.000000000000e+00 1.194022566179e-06
1.620000000000e+02 1.000000000000e+00 0.000000000000e+00 7.448185511047e-07
1.630000000000e+02 1.000000000000e+00 0.000000000000e+00 5.329714790035e-07
1.640000000000e+02 1.000000000000e+00 0.000000000000e+00 1.735115156505e-07
1.650000000000e+02 1.000000000000e+00 0.000000000000e+00 1.345281695048e-07
1.660000000000e+02 1.000000000000e+00 0.000000000000e+00 2.020494936842e-07
1.670000000000e+02 1.000000000000e+00 0.000000000000e+00 2.061278767692e-07
1.680000000000e+02 1.000000000000e+00 0.000000000000e+00 3.492341003565e-07
1.690000000000e+02 1.000000000000e+00 0.000000000000e+00 1.859976218001e-06
1.700000000000e+02 1.000000000000e+00 0.000000000000e+00 2.339101492003e-06
1.710000000000e+02 1.000000000000e+00 0.000000000000e+00 9.499764355400e-07
1.720000000000e+02 1.000000000000e+00 0.000000000000e+00 5.960991527215e-07
1.730000000000e+02 1.000000000000e+00 0.000000000000e+00 4.713140756217e-07
1.740000000000e+02 1.000000000000e+00 0.000000000000e+00 1.905804437713e-07
1.750000000000e+02 1.000000000000e+00 0.000000000000e+00 1.705414254452e-07
1.760000000000e+02 1.000000000000e+00 0.000000000000e+00 1.076459840284e-07
1.770000000000e+02 1.000000000000e+00 0.000000000000e+00 8.229694553687e-08
1.780000000000e+02 1.000000000000e+00 0.000000000000e+00 1.428755126647e-07
1.790000000000e+02 1.000000000000e+00 0.000000000000e+00 2.890219773250e-07
1.800000000000e+02 1.000000000000e+00 0.000000000000e+00 4.890239107270e-07
1.810000000000e+02 1.000000000000e+00 0.000000000000e+00 5.384576613063e-07
1.820000000000e+02 1.000000000000e+00 0.000000000000e+00 7.372780728723e-07
1.830000000000e+02 1.000000000000e+00 0.000000000000e+00 1.727884796145e-06
1.840000000000e+02 1.000000000000e+00 0.000000000000e+00 3.480791440655e-06
1.850000000000e+02 1.000000000000e+00 0.000000000000e+00 6.074345755025e-06
1.860000000000e+02 1.000000000000e+00 0.000000000000e+00 4.918460708392e-06
1.870000000000e+02 1.000000000000e+00 0.000000000000e+00 2.030097495275e-06
1.880000000000e+02 1.000000000000e+00 0.000000000000e+00 1.318192266726e-06
1.890000000000e+02 1.000000000000e+00 0.000000000000e+00 9.108227611270e-07
1.900000000000e+02 1.000000000000e+00 0.000000000000e+00 1.713452736159e-06
1.910000000000e+02 1.000000000000e+00 0.000000000000e+00 5.379623201368e-06