VARIABLES = X,Y,Z,PERMEABILITY
ZONE T = DEFAULT, N = 5151, E = 5000, F = FEPOINT, ET = QUADRILATERAL
0.000000000000e+00 0.000000000000e+00 0.000000000000e+00 3.950853667770e-07
1.000000000000e+00 0.000000000000e+00 0.000000000000e+00 3.727261538890e-07
2.000000000000e+00 0.000000000000e+00 0.000000000000e+00 3.282364236575e-07
3.000000000000e+00 0.000000000000e+00 0.000000000000e+00 2.850711373410e-07
4.000000000000e+00 0.000000000000e+00 0.000000000000e+00 2.447740976120e-07
5.000000000000e+00 0.000000000000e+00 0.000000000000e+00 2.084556855975e-07
6.000000000000e+00 0.000000000000e+00 0.000000000000e+00 1.767396083150e-07
7.000000000000e+00 0.000000000000e+00 0.000000000000e+00 1.498015802675e-07
8.000000000000e+00 0.000000000000e+00 0.000000000000e+00 1.274675835565e-07
9.000000000000e+00 0.000000000000e+00 0.000000000000e+00 1.093340251540e-07
1.000000000000e+01 0.000000000000e+00 0.000000000000e+00 9.487962363735e-08
1.100000000000e+01 0.000000000000e+00 0.000000000000e+00 8.355195496940e-08
1.200000000000e+01 0.000000000000e+00 0.000000000000e+00 7.482382166555e-08
1.300000000000e+01 0.000000000000e+00 0.000000000000e+00 6.822269339655e-08
1.400000000000e+01 0.000000000000e+00 0.000000000000e+00 6.334009897480e-08
1.500000000000e+01 0.000000000000e+00 0.000000000000e+00 5.982833814125e-08
1.600000000000e+01 0.000000000000e+00 0.000000000000e+00 5.739081929645e-08
1.700000000000e+01 0.000000000000e+00 0.000000000000e+00 5.577086300525e-08
1.800000000000e+01 0.000000000000e+00 0.000000000000e+00 5.474246238430e-08
1.900000000000e+01 0.000000000000e+00 0.000000000000e+00 5.410529112855e-08
2.000000000000e+01 0.000000000000e+00 0.000000000000e+00 5.368499808000e-08
2.100000000000e+01 0.000000000000e+00 0.000000000000e+00 5.333837846505e-08
2.200000000000e+01 0.000000000000e+00 0.000000000000e+00 5.296149838300e-08
2.300000000000e+01 0.000000000000e+00 0.000000000000e+00 5.249772576680e-08
2.400000000000e+01 0.000000000000e+00 0.000000000000e+00 5.194245111570e-08
2.500000000000e+01 0.000000000000e+00 0.000000000000e+00 5.134234163460e-08
2.600000000000e+01 0.000000000000e+00 0.000000000000e+00 5.078894948185e-08
2.700000000000e+01 0.000000000000e+00 0.000000000000e+00 5.040855090605e-08
2.800000000000e+01 0.000000000000e+00 0.000000000000e+00 5.035131527615e-08
2.900000000000e+01 0.000000000000e+00 0.000000000000e+00 5.078281651965e-08
3.000000000000e+01 0.000000000000e+00 0.000000000000e+00 5.187966063525e-08
3.100000000000e+01 0.000000000000e+00 0.000000000000e+00 5.382916619900e-08
3.200000000000e+01 0.000000000000e+00 0.000000000000e+00 5.683113047330e-08
3.300000000000e+01 0.000000000000e+00 0.000000000000e+00 6.109797541490e-08
3.400000000000e+01 0.000000000000e+00 0.000000000000e+00 6.684798816710e-08
3.500000000000e+01 0.000000000000e+00 0.000000000000e+00 7.428505089820e-08
3.600000000000e+01 0.000000000000e+00 0.000000000000e+00 8.355789128340e-08
3.700000000000e+01 0.000000000000e+00 0.000000000000e+00 9.469413539145e-08
3.800000000000e+01 0.000000000000e+00 0.000000000000e+00 1.075117140215e-07
3.900000000000e+01 0.000000000000e+00 0.000000000000e+00 1.215241390885e-07
4.000000000000e+01 0.000000000000e+00 0.000000000000e+00 1.358747295710e-07
4.100000000000e+01 0.000000000000e+00 0.000000000000e+00 1.493489458960e-07
4.200000000000e+01 0.000000000000e+00 0.000000000000e+00 1.605082951940e-07
4.300000000000e+01 0.000000000000e+00 0.000000000000e+00 1.679515367185e-07
4.400000000000e+01 0.000000000000e+00 0.000000000000e+00 1.706454727055e-07
4.500000000000e+01 0.000000000000e+00 0.000000000000e+00 1.682113153155e-07
4.600000000000e+01 0.000000000000e+00 0.000000000000e+00 1.610468449005e-07
4.700000000000e+01 0.000000000000e+00 0.000000000000e+00 1.502271677400e-07
4.800000000000e+01 0.000000000000e+00 0.000000000000e+00 1.372265112170e-07
4.900000000000e+01 0.000000000000e+00 0.000000000000e+00 1.235785011955e-07
5.000000000000e+01 0.000000000000e+00 0.000000000000e+00 1.105996997620e-07
5.100000000000e+01 0.000000000000e+00 0.000000000000e+00 9.924809565750e-08
5.200000000000e+01 0.000000000000e+00 0.000000000000e+00 9.011831494210e-08
5.300000000000e+01 0.000000000000e+00 0.000000000000e+00 8.352925062365e-08
5.400000000000e+01 0.000000000000e+00 0.000000000000e+00 7.965025913040e-08
5.500000000000e+01 0.000000000000e+00 0.000000000000e+00 7.862725450655e-08
5.600000000000e+01 0.000000000000e+00 0.000000000000e+00 8.069137802795e-08
5.700000000000e+01 0.000000000000e+00 0.000000000000e+00 8.624789824845e-08
5.800000000000e+01 0.000000000000e+00 0.000000000000e+00 9.594729803270e-08
5.900000000000e+01 0.000000000000e+00 0.000000000000e+00 1.107344197785e-07
6.000000000000e+01 0.000000000000e+00 0.000000000000e+00 1.318566750135e-07
6.100000000000e+01 0.000000000000e+00 0.000000000000e+00 1.607917504465e-07
6.200000000000e+01 0.000000000000e+00 0.000000000000e+00 1.990371694835e-07
6.300000000000e+01 0.000000000000e+00 0.000000000000e+00 2.477063977455e-07
6.400000000000e+01 0.000000000000e+00 0.000000000000e+00 3.069251776445e-07
6.500000000000e+01 0.000000000000e+00 0.000000000000e+00 3.751352110915e-07
6.600000000000e+01 0.000000000000e+00 0.000000000000e+00 4.485654260345e-07
6.700000000000e+01 0.000000000000e+00 0.000000000000e+00 5.212302382780e-07
6.800000000000e+01 0.000000000000e+00 0.000000000000e+00 5.857288645295e-07
6.900000000000e+01 0.000000000000e+00 0.000000000000e+00 6.347949522240e-07
7.000000000000e+01 0.000000000000e+00 0.000000000000e+00 6.631164130655e-07
7.100000000000e+01 0.000000000000e+00 0.000000000000e+00 6.687005538945e-07
7.200000000000e+01 0.000000000000e+00 0.000000000000e+00 6.532181172440e-07
7.300000000000e+01 0.000000000000e+00 0.000000000000e+00 6.212508876580e-07
7.400000000000e+01 0.000000000000e+00 0.000000000000e+00 5.788659786810e-07
7.500000000000e+01 0.000000000000e+00 0.000000000000e+00 5.321413107205e-07
7.600000000000e+01 0.000000000000e+00 0.000000000000e+00 4.861195246315e-07
7.700000000000e+01 0.000000000000e+00 0.000000000000e+00 4.443519823715e-07
7.800000000000e+01 0.000000000000e+00 0.000000000000e+00 4.089285320760e-07
7.900000000000e+01 0.000000000000e+00 0.000000000000e+00 3.807756992885e-07
8.000000000000e+01 0.000000000000e+00 0.000000000000e+00 3.600241379110e-07
8.100000000000e+01 0.000000000000e+00 0.000000000000e+00 3.463222707570e-07
8.200000000000e+01 0.000000000000e+00 0.000000000000e+00 3.390478114630e-07
8.300000000000e+01 0.000000000000e+00 0.000000000000e+00 3.374179105305e-07
8.400000000000e+01 0.000000000000e+00 0.000000000000e+00 3.405227889085e-07
8.500000000000e+01 0.000000000000e+00 0.000000000000e+00 3.473165659345e-07
8.600000000000e+01 0.000000000000e+00 0.000000000000e+00 3.566005266560e-07
8.700000000000e+01 0.000000000000e+00 0.000000000000e+00 3.670310974770e-07
8.800000000000e+01 0.000000000000e+00 0.000000000000e+00 3.771760598425e-07
8.900000000000e+01 0.000000000000e+00 0.000000000000e+00 3.856262859000e-07
9.000000000000e+01 0.000000000000e+00 0.000000000000e+00 3.911482391925e-07
9.100000000000e+01 0.000000000000e+00 0.000000000000e+00 3.928416529350e-07
9.200000000000e+01 0.000000000000e+00 0.000000000000e+00 3.902570739680e-07
9.300000000000e+01 0.000000000000e+00 0.000000000000e+00 3.834360676375e-07
9.400000000000e+01 0.000000000000e+00 0.000000000000e+00 3.728608577955e-07
9.500000000000e+01 0.000000000000e+00 0.000000000000e+00 3.593293046475e-07
9.600000000000e+01 0.000000000000e+00 0.000000000000e+00 3.437921224545e-07
9.700000000000e+01 0.000000000000e+00 0.000000000000e+00 3.271941835575e-07
9.800000000000e+01 0.000000000000e+00 0.000000000000e+00 3.103517638780e-07
9.900000000000e+01 0.000000000000e+00 0.000000000000e+00 2.938803282425e-07
1.000000000000e+02 0.000000000000e+00 0.000000000000e+00 2.858003136610e-07
0.000000000000e+00 1.000000000000e+00 0.000000000000e+00 4.389116430275e-07
1.000000000000e+00 1.000000000000e+00 0.000000000000e+00 4.155384998528e-07
2.000000000000e+00 1.000000000000e+00 0.000000000000e+00 3.683666887223e-07
3.000000000000e+00 1.000000000000e+00 0.000000000000e+00 3.214227715550e-07
4.000000000000e+00 1.000000000000e+00 0.000000000000e+00 2.766935030425e-07
5.000000000000e+00 1.000000000000e+00 0.000000000000e+00 2.357280007950e-07
6.000000000000e+00 1.000000000000e+00 0.000000000000e+00 1.995143564337e-07
7.000000000000e+00 1.000000000000e+00 0.000000000000e+00 1.684813871292e-07
8.000000000000e+00 1.000000000000e+00 0.000000000000e+00 1.425930241162e-07
9.000000000000e+00 1.000000000000e+00 0.000000000000e+00 1.214876569310e-07
1.000000000000e+01 1.000000000000e+00 0.000000000000e+00 1.046193393009e-07
1.100000000000e+01 1.000000000000e+00 0.000000000000e+00 9.137333213190e-08
1.200000000000e+01 1.000000000000e+00 0.000000000000e+00 8.114533820205e-08
1.300000000000e+01 1.000000000000e+00 0.000000000000e+00 7.338604467343e-08
1.400000000000e+01 1.000000000000e+00 0.000000000000e+00 6.761877675365e-08
1.500000000000e+01 1.000000000000e+00 0.000000000000e+00 6.343953161345e-08
1.600000000000e+01 1.000000000000e+00 0.000000000000e+00 6.050756824947e-08
1.700000000000e+01 1.000000000000e+00 0.000000000000e+00 5.853280540473e-08
1.800000000000e+01 1.000000000000e+00 0.000000000000e+00 5.726443132302e-08
1.900000000000e+01 1.000000000000e+00 0.000000000000e+00 5.648356328987e-08
2.000000000000e+01 1.000000000000e+00 0.000000000000e+00 5.600134402585e-08
2.100000000000e+01 1.000000000000e+00 0.000000000000e+00 5.566233113255e-08
2.200000000000e+01 1.000000000000e+00 0.000000000000e+00 5.535147355245e-08
2.300000000000e+01 1.000000000000e+00 0.000000000000e+00 5.500175578135e-08
2.400000000000e+01 1.000000000000e+00 0.000000000000e+00 5.459926354625e-08
2.500000000000e+01 1.000000000000e+00 0.000000000000e+00 5.418330056187e-08
2.600000000000e+01 1.000000000000e+00 0.000000000000e+00 5.384103292237e-08
2.700000000000e+01 1.000000000000e+00 0.000000000000e+00 5.369818337215e-08
2.800000000000e+01 1.000000000000e+00 0.000000000000e+00 5.390862771608e-08
2.900000000000e+01 1.000000000000e+00 0.000000000000e+00 5.464581330792e-08
3.000000000000e+01 1.000000000000e+00 0.000000000000e+00 5.609778431083e-08
3.100000000000e+01 1.000000000000e+00 0.000000000000e+00 5.846574841013e-08
3.200000000000e+01 1.000000000000e+00 0.000000000000e+00 6.196407860568e-08
3.300000000000e+01 1.000000000000e+00 0.000000000000e+00 6.681769743380e-08
3.400000000000e+01 1.000000000000e+00 0.000000000000e+00 7.325103842140e-08
3.500000000000e+01 1.000000000000e+00 0.000000000000e+00 8.146149525813e-08
3.600000000000e+01 1.000000000000e+00 0.000000000000e+00 9.157040176673e-08
3.700000000000e+01 1.000000000000e+00 0.000000000000e+00 1.035480640680e-07
3.800000000000e+01 1.000000000000e+00 0.000000000000e+00 1.171186433520e-07
3.900000000000e+01 1.000000000000e+00 0.000000000000e+00 1.316668184700e-07
4.000000000000e+01 1.000000000000e+00 0.000000000000e+00 1.461873736292e-07
4.100000000000e+01 1.000000000000e+00 0.000000000000e+00 1.593297672078e-07
4.200000000000e+01 1.000000000000e+00 0.000000000000e+00 1.695759627930e-07
4.300000000000e+01 1.000000000000e+00 0.000000000000e+00 1.755418465897e-07
4.400000000000e+01 1.000000000000e+00 0.000000000000e+00 1.763238767893e-07
4.500000000000e+01 1.000000000000e+00 0.000000000000e+00 1.717630882863e-07
4.600000000000e+01 1.000000000000e+00 0.000000000000e+00 1.625109661263e-07
4.700000000000e+01 1.000000000000e+00 0.000000000000e+00 1.498629337543e-07
4.800000000000e+01 1.000000000000e+00 0.000000000000e+00 1.354304450518e-07
4.900000000000e+01 1.000000000000e+00 0.000000000000e+00 1.207862820365e-07
5.000000000000e+01 1.000000000000e+00 0.000000000000e+00 1.072057507800e-07
5.100000000000e+01 1.000000000000e+00 0.000000000000e+00 9.555973210745e-08
5.200000000000e+01 1.000000000000e+00 0.000000000000e+00 8.634398085960e-08
5.300000000000e+01 1.000000000000e+00 0.000000000000e+00 7.979008488217e-08
5.400000000000e+01 1.000000000000e+00 0.000000000000e+00 7.600253797295e-08
5.500000000000e+01 1.000000000000e+00 0.000000000000e+00 7.508685661590e-08
5.600000000000e+01 1.000000000000e+00 0.000000000000e+00 7.725634369267e-08
5.700000000000e+01 1.000000000000e+00 0.000000000000e+00 8.291906723153e-08
5.800000000000e+01 1.000000000000e+00 0.000000000000e+00 9.274924883873e-08
5.900000000000e+01 1.000000000000e+00 0.000000000000e+00 1.077395651929e-07
6.000000000000e+01 1.000000000000e+00 0.000000000000e+00 1.292143362830e-07
6.100000000000e+01 1.000000000000e+00 0.000000000000e+00 1.587608330908e-07
6.200000000000e+01 1.000000000000e+00 0.000000000000e+00 1.980151682207e-07
6.300000000000e+01 1.000000000000e+00 0.000000000000e+00 2.482395738175e-07
6.400000000000e+01 1.000000000000e+00 0.000000000000e+00 3.096785322690e-07
6.500000000000e+01 1.000000000000e+00 0.000000000000e+00 3.808033674888e-07
6.600000000000e+01 1.000000000000e+00 0.000000000000e+00 4.577236458485e-07
6.700000000000e+01 1.000000000000e+00 0.000000000000e+00 5.341573320108e-07
6.800000000000e+01 1.000000000000e+00 0.000000000000e+00 6.022649051415e-07
6.900000000000e+01 1.000000000000e+00 0.000000000000e+00 6.543016249153e-07
7.000000000000e+01 1.000000000000e+00 0.000000000000e+00 6.845726049057e-07
7.100000000000e+01 1.000000000000e+00 0.000000000000e+00 6.909053356930e-07
7.200000000000e+01 1.000000000000e+00 0.000000000000e+00 6.750250602013e-07
7.300000000000e+01 1.000000000000e+00 0.000000000000e+00 6.417518799778e-07
7.400000000000e+01 1.000000000000e+00 0.000000000000e+00 5.974778916910e-07
7.500000000000e+01 1.000000000000e+00 0.000000000000e+00 5.485969992015e-07
7.600000000000e+01 1.000000000000e+00 0.000000000000e+00 5.003970763145e-07
7.700000000000e+01 1.000000000000e+00 0.000000000000e+00 4.565828311278e-07
7.800000000000e+01 1.000000000000e+00 0.000000000000e+00 4.193137616185e-07
7.900000000000e+01 1.000000000000e+00 0.000000000000e+00 3.895237626365e-07
8.000000000000e+01 1.000000000000e+00 0.000000000000e+00 3.673111202937e-07
8.100000000000e+01 1.000000000000e+00 0.000000000000e+00 3.522701100973e-07
8.200000000000e+01 1.000000000000e+00 0.000000000000e+00 3.437150770100e-07
8.300000000000e+01 1.000000000000e+00 0.000000000000e+00 3.407994106610e-07
8.400000000000e+01 1.000000000000e+00 0.000000000000e+00 3.425565390015e-07
8.500000000000e+01 1.000000000000e+00 0.000000000000e+00 3.478983260835e-07
8.600000000000e+01 1.000000000000e+00 0.000000000000e+00 3.556065316760e-07
8.700000000000e+01 1.000000000000e+00 0.000000000000e+00 3.643484302233e-07
8.800000000000e+01 1.000000000000e+00 0.000000000000e+00 3.727375625125e-07
8.900000000000e+01 1.000000000000e+00 0.000000000000e+00 3.794438962507e-07
9.000000000000e+01 1.000000000000e+00 0.000000000000e+00 3.833367449198e-07
9.100000000000e+01 1.000000000000e+00 0.000000000000e+00 3.836256004010e-07
9.200000000000e+01 1.000000000000e+00 0.000000000000e+00 3.799574161042e-07
9.300000000000e+01 1.000000000000e+00 0.000000000000e+00 3.724388913747e-07
9.400000000000e+01 1.000000000000e+00 0.000000000000e+00 3.615757670448e-07
9.500000000000e+01 1.000000000000e+00 0.000000000000e+00 3.481474628675e-07
9.600000000000e+01 1.000000000000e+00 0.000000000000e+00 3.330527649423e-07
9.700000000000e+01 1.000000000000e+00 0.000000000000e+00 3.171645802437e-07
9.800000000000e+01 1.000000000000e+00 0.000000000000e+00 3.012211269608e-07
9.900000000000e+01 1.000000000000e+00 0.000000000000e+00 2.857647765607e-07
1.000000000000e+02 1.000000000000e+00 0.000000000000e+00 2.782127888595e-07
0.000000000000e+00 2.000000000000e+00 0.000000000000e+00 5.301569132085e-07
1.000000000000e+00 2.000000000000e+00 0.000000000000e+00 5.052281665697e-07
2.000000000000e+00 2.000000000000e+00 0.000000000000e+00 4.534012253552e-07
3.000000000000e+00 2.000000000000e+00 0.000000000000e+00 3.991488142528e-07
4.000000000000e+00 2.000000000000e+00 0.000000000000e+00 3.454014581520e-07
5.000000000000e+00 2.000000000000e+00 0.000000000000e+00 2.946980971998e-07
6.000000000000e+00 2.000000000000e+00 0.000000000000e+00 2.488851882115e-07
7.000000000000e+00 2.000000000000e+00 0.000000000000e+00 2.090129549163e-07
8.000000000000e+00 2.000000000000e+00 0.000000000000e+00 1.754042794185e-07
9.000000000000e+00 2.000000000000e+00 0.000000000000e+00 1.478289401552e-07
1.000000000000e+01 2.000000000000e+00 0.000000000000e+00 1.257095375470e-07
1.100000000000e+01 2.000000000000e+00 0.000000000000e+00 1.083048537999e-07
1.200000000000e+01 2.000000000000e+00 0.000000000000e+00 9.484411497008e-08
1.300000000000e+01 2.000000000000e+00 0.000000000000e+00 8.460851299210e-08
1.400000000000e+01 2.000000000000e+00 0.000000000000e+00 7.696938030802e-08
1.500000000000e+01 2.000000000000e+00 0.000000000000e+00 7.139669520512e-08
1.600000000000e+01 2.000000000000e+00 0.000000000000e+00 6.745063891215e-08
1.700000000000e+01 2.000000000000e+00 0.000000000000e+00 6.476595220620e-08
1.800000000000e+01 2.000000000000e+00 0.000000000000e+00 6.303576712750e-08
1.900000000000e+01 2.000000000000e+00 0.000000000000e+00 6.199909639340e-08
2.000000000000e+01 2.000000000000e+00 0.000000000000e+00 6.143417732825e-08
2.100000000000e+01 2.000000000000e+00 0.000000000000e+00 6.115808732865e-08
2.200000000000e+01 2.000000000000e+00 0.000000000000e+00 6.103134026055e-08
2.300000000000e+01 2.000000000000e+00 0.000000000000e+00 6.096475741010e-08
2.400000000000e+01 2.000000000000e+00 0.000000000000e+00 6.092526029910e-08
2.500000000000e+01 2.000000000000e+00 0.000000000000e+00 6.093774631495e-08
2.600000000000e+01 2.000000000000e+00 0.000000000000e+00 6.108180685055e-08
2.700000000000e+01 2.000000000000e+00 0.000000000000e+00 6.148408407738e-08
2.800000000000e+01 2.000000000000e+00 0.000000000000e+00 6.230861409768e-08
2.900000000000e+01 2.000000000000e+00 0.000000000000e+00 6.374787674905e-08
3.000000000000e+01 2.000000000000e+00 0.000000000000e+00 6.601632851690e-08
3.100000000000e+01 2.000000000000e+00 0.000000000000e+00 6.934629073698e-08
3.200000000000e+01 2.000000000000e+00 0.000000000000e+00 7.398371867643e-08
3.300000000000e+01 2.000000000000e+00 0.000000000000e+00 8.017899950333e-08
3.400000000000e+01 2.000000000000e+00 0.000000000000e+00 8.816587105125e-08
3.500000000000e+01 2.000000000000e+00 0.000000000000e+00 9.812049999627e-08
3.600000000000e+01 2.000000000000e+00 0.000000000000e+00 1.100942178888e-07
3.700000000000e+01 2.000000000000e+00 0.000000000000e+00 1.239198382735e-07
3.800000000000e+01 2.000000000000e+00 0.000000000000e+00 1.391052040048e-07
3.900000000000e+01 2.000000000000e+00 0.000000000000e+00 1.547479651390e-07
4.000000000000e+01 2.000000000000e+00 0.000000000000e+00 1.695248704270e-07
4.100000000000e+01 2.000000000000e+00 0.000000000000e+00 1.818109736382e-07
4.200000000000e+01 2.000000000000e+00 0.000000000000e+00 1.899517189910e-07
4.300000000000e+01 2.000000000000e+00 0.000000000000e+00 1.926422424665e-07
4.400000000000e+01 2.000000000000e+00 0.000000000000e+00 1.892928421372e-07
4.500000000000e+01 2.000000000000e+00 0.000000000000e+00 1.802299309788e-07
4.600000000000e+01 2.000000000000e+00 0.000000000000e+00 1.666347706830e-07
4.700000000000e+01 2.000000000000e+00 0.000000000000e+00 1.502389586958e-07
4.800000000000e+01 2.000000000000e+00 0.000000000000e+00 1.329051502535e-07
4.900000000000e+01 2.000000000000e+00 0.000000000000e+00 1.162557694705e-07
5.000000000000e+01 2.000000000000e+00 0.000000000000e+00 1.014606498035e-07
5.100000000000e+01 2.000000000000e+00 0.000000000000e+00 8.920401023545e-08
5.200000000000e+01 2.000000000000e+00 0.000000000000e+00 7.978092388648e-08
5.300000000000e+01 2.000000000000e+00 0.000000000000e+00 7.325105037172e-08
5.400000000000e+01 2.000000000000e+00 0.000000000000e+00 6.959344145253e-08
5.500000000000e+01 2.000000000000e+00 0.000000000000e+00 6.883587646715e-08
5.600000000000e+01 2.000000000000e+00 0.000000000000e+00 7.115625899048e-08
5.700000000000e+01 2.000000000000e+00 0.000000000000e+00 7.696498124078e-08
5.800000000000e+01 2.000000000000e+00 0.000000000000e+00 8.697644249220e-08
5.900000000000e+01 2.000000000000e+00 0.000000000000e+00 1.022672980711e-07
6.000000000000e+01 2.000000000000e+00 0.000000000000e+00 1.242995580088e-07
6.100000000000e+01 2.000000000000e+00 0.000000000000e+00 1.548599960957e-07
6.200000000000e+01 2.000000000000e+00 0.000000000000e+00 1.958414683588e-07
6.300000000000e+01 2.000000000000e+00 0.000000000000e+00 2.487880066813e-07
6.400000000000e+01 2.000000000000e+00 0.000000000000e+00 3.141786660810e-07
6.500000000000e+01 2.000000000000e+00 0.000000000000e+00 3.905628377107e-07
6.600000000000e+01 2.000000000000e+00 0.000000000000e+00 4.738575443400e-07
6.700000000000e+01 2.000000000000e+00 0.000000000000e+00 5.572587273717e-07
6.800000000000e+01 2.000000000000e+00 0.000000000000e+00 6.321311744520e-07
6.900000000000e+01 2.000000000000e+00 0.000000000000e+00 6.898437409415e-07
7.000000000000e+01 2.000000000000e+00 0.000000000000e+00 7.239726445815e-07
7.100000000000e+01 2.000000000000e+00 0.000000000000e+00 7.319769925240e-07
7.200000000000e+01 2.000000000000e+00 0.000000000000e+00 7.156412385425e-07
7.300000000000e+01 2.000000000000e+00 0.000000000000e+00 6.801890866135e-07
7.400000000000e+01 2.000000000000e+00 0.000000000000e+00 6.325883438628e-07
7.500000000000e+01 2.000000000000e+00 0.000000000000e+00 5.798062589108e-07
7.600000000000e+01 2.000000000000e+00 0.000000000000e+00 5.275853172920e-07
7.700000000000e+01 2.000000000000e+00 0.000000000000e+00 4.799222649747e-07
7.800000000000e+01 2.000000000000e+00 0.000000000000e+00 4.391162043295e-07
7.900000000000e+01 2.000000000000e+00 0.000000000000e+00 4.061241137888e-07
8.000000000000e+01 2.000000000000e+00 0.000000000000e+00 3.809906953275e-07
8.100000000000e+01 2.000000000000e+00 0.000000000000e+00 3.632130227593e-07
8.200000000000e+01 2.000000000000e+00 0.000000000000e+00 3.519889079837e-07
8.300000000000e+01 2.000000000000e+00 0.000000000000e+00 3.463540232537e-07
8.400000000000e+01 2.000000000000e+00 0.000000000000e+00 3.452386600503e-07
8.500000000000e+01 2.000000000000e+00 0.000000000000e+00 3.474821594277e-07
8.600000000000e+01 2.000000000000e+00 0.000000000000e+00 3.518408831397e-07
8.700000000000e+01 2.000000000000e+00 0.000000000000e+00 3.570180762192e-07
8.800000000000e+01 2.000000000000e+00 0.000000000000e+00 3.617314885450e-07
8.900000000000e+01 2.000000000000e+00 0.000000000000e+00 3.648175898723e-07
9.000000000000e+01 2.000000000000e+00 0.000000000000e+00 3.653529937877e-07
9.100000000000e+01 2.000000000000e+00 0.000000000000e+00 3.627608416885e-07
9.200000000000e+01 2.000000000000e+00 0.000000000000e+00 3.568689538773e-07
9.300000000000e+01 2.000000000000e+00 0.000000000000e+00 3.478994617715e-07
9.400000000000e+01 2.000000000000e+00 0.000000000000e+00 3.363912630823e-07
9.500000000000e+01 2.000000000000e+00 0.000000000000e+00 3.230771474515e-07
9.600000000000e+01 2.000000000000e+00 0.000000000000e+00 3.087480347238e-07
9.700000000000e+01 2.000000000000e+00 0.000000000000e+00 2.941345838750e-07
9.800000000000e+01 2.000000000000e+00 0.000000000000e+00 2.798250966807e-07
9.900000000000e+01 2.000000000000e+00 0.000000000000e+00 2.662249086808e-07
1.000000000000e+02 2.000000000000e+00 0.000000000000e+00 2.596407394475e-07
0.000000000000e+00 3.000000000000e+00 0.000000000000e+00 6.244367635760e-07
1.000000000000e+00 3.000000000000e+00 0.000000000000e+00 5.991484691362e-07
2.000000000000e+00 3.000000000000e+00 0.000000000000e+00 5.446347073643e-07
3.000000000000e+00 3.000000000000e+00 0.000000000000e+00 4.841763831933e-07
4.000000000000e+00 3.000000000000e+00 0.000000000000e+00 4.216933427423e-07
5.000000000000e+00 3.000000000000e+00 0.000000000000e+00 3.608907062640e-07
6.000000000000e+00 3.000000000000e+00 0.000000000000e+00 3.047090884757e-07
7.000000000000e+00 3.000000000000e+00 0.000000000000e+00 2.550472858223e-07
8.000000000000e+00 3.000000000000e+00 0.000000000000e+00 2.127622572062e-07
9.000000000000e+00 3.000000000000e+00 0.000000000000e+00 1.778641579027e-07
1.000000000000e+01 3.000000000000e+00 0.000000000000e+00 1.497944890635e-07
1.100000000000e+01 3.000000000000e+00 0.000000000000e+00 1.276946719918e-07
1.200000000000e+01 3.000000000000e+00 0.000000000000e+00 1.106132750630e-07
1.300000000000e+01 3.000000000000e+00 0.000000000000e+00 9.763819387182e-08
1.400000000000e+01 3.000000000000e+00 0.000000000000e+00 8.796373577472e-08
1.500000000000e+01 3.000000000000e+00 0.000000000000e+00 8.091166697210e-08
1.600000000000e+01 3.000000000000e+00 0.000000000000e+00 7.592501603382e-08
1.700000000000e+01 3.000000000000e+00 0.000000000000e+00 7.254920315165e-08
1.800000000000e+01 3.000000000000e+00 0.000000000000e+00 7.041034191480e-08
1.900000000000e+01 3.000000000000e+00 0.000000000000e+00 6.919675461205e-08
2.000000000000e+01 3.000000000000e+00 0.000000000000e+00 6.864695161047e-08
2.100000000000e+01 3.000000000000e+00 0.000000000000e+00 6.854512996267e-08
2.200000000000e+01 3.000000000000e+00 0.000000000000e+00 6.872329683855e-08
2.300000000000e+01 3.000000000000e+00 0.000000000000e+00 6.906745318672e-08
2.400000000000e+01 3.000000000000e+00 0.000000000000e+00 6.952428611290e-08
2.500000000000e+01 3.000000000000e+00 0.000000000000e+00 7.010497096023e-08
2.600000000000e+01 3.000000000000e+00 0.000000000000e+00 7.088405091940e-08
2.700000000000e+01 3.000000000000e+00 0.000000000000e+00 7.199341165005e-08
2.800000000000e+01 3.000000000000e+00 0.000000000000e+00 7.361315897980e-08
2.900000000000e+01 3.000000000000e+00 0.000000000000e+00 7.596188480400e-08
3.000000000000e+01 3.000000000000e+00 0.000000000000e+00 7.928802604728e-08
3.100000000000e+01 3.000000000000e+00 0.000000000000e+00 8.386200760975e-08
3.200000000000e+01 3.000000000000e+00 0.000000000000e+00 8.996614499808e-08
3.300000000000e+01 3.000000000000e+00 0.000000000000e+00 9.787645420622e-08
3.400000000000e+01 3.000000000000e+00 0.000000000000e+00 1.078282746366e-07
3.500000000000e+01 3.000000000000e+00 0.000000000000e+00 1.199571711100e-07
3.600000000000e+01 3.000000000000e+00 0.000000000000e+00 1.342101136212e-07
3.700000000000e+01 3.000000000000e+00 0.000000000000e+00 1.502323190947e-07
3.800000000000e+01 3.000000000000e+00 0.000000000000e+00 1.672540697728e-07
3.900000000000e+01 3.000000000000e+00 0.000000000000e+00 1.840258351600e-07
4.000000000000e+01 3.000000000000e+00 0.000000000000e+00 1.988664050950e-07
4.100000000000e+01 3.000000000000e+00 0.000000000000e+00 2.098768871512e-07
4.200000000000e+01 3.000000000000e+00 0.000000000000e+00 2.153177722095e-07
4.300000000000e+01 3.000000000000e+00 0.000000000000e+00 2.140578063563e-07
4.400000000000e+01 3.000000000000e+00 0.000000000000e+00 2.059300995105e-07
4.500000000000e+01 3.000000000000e+00 0.000000000000e+00 1.918337112317e-07
4.600000000000e+01 3.000000000000e+00 0.000000000000e+00 1.735192148182e-07
4.700000000000e+01 3.000000000000e+00 0.000000000000e+00 1.531430258830e-07
4.800000000000e+01 3.000000000000e+00 0.000000000000e+00 1.327746863085e-07
4.900000000000e+01 3.000000000000e+00 0.000000000000e+00 1.140347499488e-07
5.000000000000e+01 3.000000000000e+00 0.000000000000e+00 9.794844024668e-08
5.100000000000e+01 3.000000000000e+00 0.000000000000e+00 8.499369177060e-08
5.200000000000e+01 3.000000000000e+00 0.000000000000e+00 7.526168953498e-08
5.300000000000e+01 3.000000000000e+00 0.000000000000e+00 6.864589514332e-08
5.400000000000e+01 3.000000000000e+00 0.000000000000e+00 6.500752612570e-08
5.500000000000e+01 3.000000000000e+00 0.000000000000e+00 6.430144819073e-08
5.600000000000e+01 3.000000000000e+00 0.000000000000e+00 6.666972909172e-08
5.700000000000e+01 3.000000000000e+00 0.000000000000e+00 7.251803301975e-08
5.800000000000e+01 3.000000000000e+00 0.000000000000e+00 8.258608370445e-08
5.900000000000e+01 3.000000000000e+00 0.000000000000e+00 9.801047921787e-08
6.000000000000e+01 3.000000000000e+00 0.000000000000e+00 1.203565564360e-07
6.100000000000e+01 3.000000000000e+00 0.000000000000e+00 1.515663777695e-07
6.200000000000e+01 3.000000000000e+00 0.000000000000e+00 1.937398734038e-07
6.300000000000e+01 3.000000000000e+00 0.000000000000e+00 2.486586213402e-07
6.400000000000e+01 3.000000000000e+00 0.000000000000e+00 3.170158023945e-07
6.500000000000e+01 3.000000000000e+00 0.000000000000e+00 3.974649959977e-07
6.600000000000e+01 3.000000000000e+00 0.000000000000e+00 4.858212791765e-07
6.700000000000e+01 3.000000000000e+00 0.000000000000e+00 5.749134064333e-07
6.800000000000e+01 3.000000000000e+00 0.000000000000e+00 6.555014059835e-07
6.900000000000e+01 3.000000000000e+00 0.000000000000e+00 7.182422623030e-07
7.000000000000e+01 3.000000000000e+00 0.000000000000e+00 7.560847437812e-07
7.100000000000e+01 3.000000000000e+00 0.000000000000e+00 7.661142760673e-07
7.200000000000e+01 3.000000000000e+00 0.000000000000e+00 7.500685983045e-07
7.300000000000e+01 3.000000000000e+00 0.000000000000e+00 7.134092538450e-07
7.400000000000e+01 3.000000000000e+00 0.000000000000e+00 6.635072910342e-07
7.500000000000e+01 3.000000000000e+00 0.000000000000e+00 6.077658162498e-07
7.600000000000e+01 3.000000000000e+00 0.000000000000e+00 5.522977080100e-07
7.700000000000e+01 3.000000000000e+00 0.000000000000e+00 5.013577936292e-07
7.800000000000e+01 3.000000000000e+00 0.000000000000e+00 4.573865296440e-07
7.900000000000e+01 3.000000000000e+00 0.000000000000e+00 4.213850513570e-07
8.000000000000e+01 3.000000000000e+00 0.000000000000e+00 3.933723921260e-07
8.100000000000e+01 3.000000000000e+00 0.000000000000e+00 3.727762270543e-07
8.200000000000e+01 3.000000000000e+00 0.000000000000e+00 3.587032585215e-07
8.300000000000e+01 3.000000000000e+00 0.000000000000e+00 3.500951741253e-07
8.400000000000e+01 3.000000000000e+00 0.000000000000e+00 3.458030349727e-07
8.500000000000e+01 3.000000000000e+00 0.000000000000e+00 3.446192296807e-07
8.600000000000e+01 3.000000000000e+00 0.000000000000e+00 3.453018666540e-07
8.700000000000e+01 3.000000000000e+00 0.000000000000e+00 3.466165583385e-07
8.800000000000e+01 3.000000000000e+00 0.000000000000e+00 3.474065988505e-07
8.900000000000e+01 3.000000000000e+00 0.000000000000e+00 3.466862378405e-07