 TITLE = "Time curves in points"
 VARIABLES = "TIME "  "TRACER" 
 ZONE T="POINT=POINTpoint2"
0.000000000000e+00 0.000000000000e+00 
9.000000000000e+01 1.289852177341e-10 
1.800000000000e+02 -1.497724460968e-08 
2.700000000000e+02 -6.922648725184e-09 
3.600000000000e+02 1.267925666211e-06 
4.500000000000e+02 7.003145788082e-07 
5.400000000000e+02 -1.911933874034e-05 
6.300000000000e+02 -2.504013811824e-05 
7.200000000000e+02 4.528020525006e-05 
8.100000000000e+02 1.182491921386e-04 
9.000000000000e+02 1.523758200371e-04 
9.900000000000e+02 1.225984402066e-04 
1.080000000000e+03 2.359320024350e-05 
1.170000000000e+03 -1.334746984505e-04 
1.260000000000e+03 -3.305005977224e-04 
1.350000000000e+03 -5.456887789638e-04 
1.440000000000e+03 -7.579161435715e-04 
1.530000000000e+03 -9.482168010716e-04 
1.620000000000e+03 -1.100935629546e-03 
1.710000000000e+03 -1.203902432079e-03 
1.800000000000e+03 -1.248345976512e-03 
1.890000000000e+03 -1.228535286795e-03 
1.980000000000e+03 -1.141352702642e-03 
2.070000000000e+03 -9.858362337243e-04 
2.160000000000e+03 -7.627480241062e-04 
2.250000000000e+03 -4.741841172817e-04 
2.340000000000e+03 -1.232368159369e-04 
2.430000000000e+03 2.862902304969e-04 
2.520000000000e+03 7.501167594625e-04 
2.610000000000e+03 1.263675678120e-03 
2.700000000000e+03 1.822263654317e-03 
2.790000000000e+03 2.421158412067e-03 
2.880000000000e+03 3.055708214458e-03 
2.970000000000e+03 3.721398467686e-03 
3.060000000000e+03 4.413899738440e-03 
3.150000000000e+03 5.129100850089e-03 
3.240000000000e+03 5.863130136066e-03 
3.330000000000e+03 6.612367405279e-03 
3.420000000000e+03 7.373448717891e-03 
3.510000000000e+03 8.143265679862e-03 
3.600000000000e+03 8.918960636068e-03 
3.690000000000e+03 9.697918867971e-03 
3.780000000000e+03 1.047775867560e-02 
3.870000000000e+03 1.125632003807e-02 
3.960000000000e+03 1.203165239578e-02 
4.050000000000e+03 1.280200197467e-02 
4.140000000000e+03 1.356579897457e-02 
4.230000000000e+03 1.432164486403e-02 
4.320000000000e+03 1.506829996127e-02 
4.410000000000e+03 1.580467143044e-02 
4.500000000000e+03 1.652980178316e-02 
4.590000000000e+03 1.724285794410e-02 
4.680000000000e+03 1.794312091555e-02 
4.770000000000e+03 1.862997605741e-02 
4.860000000000e+03 1.930290398485e-02 
4.950000000000e+03 1.996147207558e-02 
5.040000000000e+03 2.060532657079e-02 
5.130000000000e+03 2.123418524855e-02 
5.220000000000e+03 2.184783064449e-02 
5.310000000000e+03 2.244610379224e-02 
5.400000000000e+03 2.302889845498e-02 
5.490000000000e+03 2.359615581861e-02 
5.580000000000e+03 2.414785961722e-02 
5.670000000000e+03 2.468403166225e-02 
5.760000000000e+03 2.520472774713e-02 
5.850000000000e+03 2.571003390087e-02 
5.940000000000e+03 2.620006296465e-02 
6.030000000000e+03 2.667495146729e-02 
6.120000000000e+03 2.713485677659e-02 
6.210000000000e+03 2.757995450504e-02 
6.300000000000e+03 2.801043614962e-02 
6.390000000000e+03 2.842650694704e-02 
6.480000000000e+03 2.882838392668e-02 
6.570000000000e+03 2.921629414525e-02 
6.660000000000e+03 2.959047308776e-02 
6.750000000000e+03 2.995116322119e-02 
6.840000000000e+03 3.029861268778e-02 
6.930000000000e+03 3.063307412602e-02 
7.020000000000e+03 3.095480360867e-02 
7.110000000000e+03 3.126405968732e-02 
7.200000000000e+03 3.156110253468e-02 
7.290000000000e+03 3.184619317568e-02 
7.380000000000e+03 3.211959279982e-02 
7.470000000000e+03 3.238156214752e-02 
7.560000000000e+03 3.263236096387e-02 
7.650000000000e+03 3.287224751374e-02 
7.740000000000e+03 3.310147815282e-02 
7.830000000000e+03 3.332030694939e-02 
7.920000000000e+03 3.352898535230e-02 
8.010000000000e+03 3.372776190087e-02 
8.100000000000e+03 3.391688197286e-02 
8.190000000000e+03 3.409658756694e-02 
8.280000000000e+03 3.426711711638e-02 
8.370000000000e+03 3.442870533115e-02 
8.460000000000e+03 3.458158306554e-02 
8.550000000000e+03 3.472597720894e-02 
8.640000000000e+03 3.486211059748e-02 
8.730000000000e+03 3.499020194449e-02 
8.820000000000e+03 3.511046578792e-02 
8.910000000000e+03 3.522311245297e-02 
9.000000000000e+03 3.532834802831e-02 
9.090000000000e+03 3.542637435467e-02 
9.180000000000e+03 3.551738902423e-02 
9.270000000000e+03 3.560158538986e-02 
9.360000000000e+03 3.567915258299e-02 
9.450000000000e+03 3.575027553917e-02 
9.540000000000e+03 3.581513503046e-02 
9.630000000000e+03 3.587390770383e-02 
9.720000000000e+03 3.592676612475e-02 
9.810000000000e+03 3.597387882545e-02 
9.900000000000e+03 3.601541035713e-02 
9.990000000000e+03 3.605152134557e-02 
1.008000000000e+04 3.608236854973e-02 
1.017000000000e+04 3.610810492283e-02 
1.026000000000e+04 3.612887967544e-02 
1.035000000000e+04 3.614483834035e-02 
1.044000000000e+04 3.615612283878e-02 
1.053000000000e+04 3.616287154766e-02 
1.062000000000e+04 3.616521936774e-02 
1.071000000000e+04 3.616329779221e-02 
1.080000000000e+04 3.615723497571e-02 
1.089000000000e+04 3.614715580346e-02 
1.098000000000e+04 3.613318196038e-02 
1.107000000000e+04 3.611543199999e-02 
1.116000000000e+04 3.609402141306e-02 
1.125000000000e+04 3.606906269571e-02 
1.134000000000e+04 3.604066541707e-02 
1.143000000000e+04 3.600893628618e-02 
1.152000000000e+04 3.597397921827e-02 
1.161000000000e+04 3.593589540012e-02 
1.170000000000e+04 3.589478335466e-02 
1.179000000000e+04 3.585073900455e-02 
1.188000000000e+04 3.580385573484e-02 
1.197000000000e+04 3.575422445465e-02 
1.206000000000e+04 3.570193365770e-02 
1.215000000000e+04 3.564706948190e-02 
1.224000000000e+04 3.558971576777e-02 
1.233000000000e+04 3.552995411576e-02 
1.242000000000e+04 3.546786394246e-02 
1.251000000000e+04 3.540352253571e-02 
1.260000000000e+04 3.533700510851e-02 
1.269000000000e+04 3.526838485187e-02 
1.278000000000e+04 3.519773298649e-02 
1.287000000000e+04 3.512511881326e-02 
1.296000000000e+04 3.505060976277e-02 
1.305000000000e+04 3.497427144353e-02 
1.314000000000e+04 3.489616768926e-02 
1.323000000000e+04 3.481636060492e-02 
1.332000000000e+04 3.473491061179e-02 
1.341000000000e+04 3.465187649140e-02 
1.350000000000e+04 3.456731542843e-02 
1.359000000000e+04 3.448128305256e-02 
1.368000000000e+04 3.439383347932e-02 
1.377000000000e+04 3.430501934994e-02 
1.386000000000e+04 3.421489187012e-02 
1.395000000000e+04 3.412350084799e-02 
1.404000000000e+04 3.403089473094e-02 
1.413000000000e+04 3.393712064165e-02 
1.422000000000e+04 3.384222441316e-02 
1.431000000000e+04 3.374625062300e-02 
1.440000000000e+04 3.364924262651e-02 
1.449000000000e+04 3.355124258925e-02 
1.458000000000e+04 3.345229151859e-02 
1.467000000000e+04 3.335242929450e-02 
1.476000000000e+04 3.325169469946e-02 
1.485000000000e+04 3.315012544768e-02 
1.494000000000e+04 3.304775821352e-02 
1.503000000000e+04 3.294462865908e-02 
1.512000000000e+04 3.284077146123e-02 
1.521000000000e+04 3.273622033772e-02 
1.530000000000e+04 3.263100807280e-02 
1.539000000000e+04 3.252516654199e-02 
1.548000000000e+04 3.241872673630e-02 
1.557000000000e+04 3.231171878573e-02 
1.566000000000e+04 3.220417198224e-02 
1.575000000000e+04 3.209611480196e-02 
1.584000000000e+04 3.198757492697e-02 
1.593000000000e+04 3.187857926635e-02 
1.602000000000e+04 3.176915397676e-02 
1.611000000000e+04 3.165932448244e-02 
1.620000000000e+04 3.154911549464e-02 
1.629000000000e+04 3.143855103062e-02 
1.638000000000e+04 3.132765443199e-02 
1.647000000000e+04 3.121644838270e-02 
1.656000000000e+04 3.110495492650e-02 
1.665000000000e+04 3.099319548386e-02 
1.674000000000e+04 3.088119086853e-02 
1.683000000000e+04 3.076896130365e-02 
1.692000000000e+04 3.065652643730e-02 
1.701000000000e+04 3.054390535781e-02 
1.710000000000e+04 3.043111660855e-02 
1.719000000000e+04 3.031817820231e-02 
1.728000000000e+04 3.020510763537e-02 
1.737000000000e+04 3.009192190112e-02 
1.746000000000e+04 2.997863750336e-02 
1.755000000000e+04 2.986527046921e-02 
1.764000000000e+04 2.975183636171e-02 
1.773000000000e+04 2.963835029202e-02 
1.782000000000e+04 2.952482693138e-02 
1.791000000000e+04 2.941128052266e-02 
1.800000000000e+04 2.929772489168e-02 
1.809000000000e+04 2.918417345814e-02 
1.818000000000e+04 2.907063924635e-02 
1.827000000000e+04 2.895713489560e-02 
1.836000000000e+04 2.884367267032e-02 
1.845000000000e+04 2.873026446987e-02 
1.854000000000e+04 2.861692183817e-02 
1.863000000000e+04 2.850365597304e-02 
1.872000000000e+04 2.839047773523e-02 
1.881000000000e+04 2.827739765734e-02 
1.890000000000e+04 2.816442595235e-02 
1.899000000000e+04 2.805157252204e-02 
1.908000000000e+04 2.793884696515e-02 
1.917000000000e+04 2.782625858528e-02 
1.926000000000e+04 2.771381639866e-02 
1.935000000000e+04 2.760152914165e-02 
1.944000000000e+04 2.748940527808e-02 
1.953000000000e+04 2.737745300635e-02 
1.962000000000e+04 2.726568026643e-02 
1.971000000000e+04 2.715409474654e-02 
1.980000000000e+04 2.704270388980e-02 
1.989000000000e+04 2.693151490063e-02 
1.998000000000e+04 2.682053475094e-02 
2.007000000000e+04 2.670977018627e-02 
2.016000000000e+04 2.659922773164e-02 
2.025000000000e+04 2.648891369739e-02 
2.034000000000e+04 2.637883418472e-02 
2.043000000000e+04 2.626899509119e-02 
2.052000000000e+04 2.615940211603e-02 
2.061000000000e+04 2.605006076533e-02 
2.070000000000e+04 2.594097635708e-02 
2.079000000000e+04 2.583215402609e-02 
2.088000000000e+04 2.572359872876e-02 
2.097000000000e+04 2.561531524779e-02 
2.106000000000e+04 2.550730819666e-02 
2.115000000000e+04 2.539958202410e-02 
2.124000000000e+04 2.529214101839e-02 
2.133000000000e+04 2.518498931153e-02 
2.142000000000e+04 2.507813088339e-02 
2.151000000000e+04 2.497156956562e-02 
2.160000000000e+04 2.486530904559e-02 
2.169000000000e+04 2.475935287014e-02 
2.178000000000e+04 2.465370444929e-02 
2.187000000000e+04 2.454836705980e-02 
2.196000000000e+04 2.444334384866e-02 
2.205000000000e+04 2.433863783656e-02 
2.214000000000e+04 2.423425192113e-02 
2.223000000000e+04 2.413018888024e-02 
2.232000000000e+04 2.402645137510e-02 
2.241000000000e+04 2.392304195336e-02 
2.250000000000e+04 2.381996305212e-02 
2.259000000000e+04 2.371721700079e-02 
2.268000000000e+04 2.361480602400e-02 
2.277000000000e+04 2.351273224431e-02 
2.286000000000e+04 2.341099768496e-02 
2.295000000000e+04 2.330960427246e-02 
2.304000000000e+04 2.320855383919e-02 
2.313000000000e+04 2.310784812586e-02 
2.322000000000e+04 2.300748878398e-02 
2.331000000000e+04 2.290747737821e-02 
2.340000000000e+04 2.280781538870e-02 
2.349000000000e+04 2.270850421331e-02 
2.358000000000e+04 2.260954516986e-02 
2.367000000000e+04 2.251093949820e-02 
2.376000000000e+04 2.241268836237e-02 
2.385000000000e+04 2.231479285260e-02 
2.394000000000e+04 2.221725398729e-02 
2.403000000000e+04 2.212007271497e-02 
2.412000000000e+04 2.202324991618e-02 
2.421000000000e+04 2.192678640528e-02 
2.430000000000e+04 2.183068293228e-02 
2.439000000000e+04 2.173494018458e-02 
2.448000000000e+04 2.163955878864e-02 
2.457000000000e+04 2.154453931171e-02 
2.466000000000e+04 2.144988226337e-02 
2.475000000000e+04 2.135558809717e-02 
2.484000000000e+04 2.126165721214e-02 
2.493000000000e+04 2.116808995431e-02 
2.502000000000e+04 2.107488661815e-02 
2.511000000000e+04 2.098204744802e-02 
2.520000000000e+04 2.088957263955e-02 
2.529000000000e+04 2.079746234100e-02 
2.538000000000e+04 2.070571665458e-02 
2.547000000000e+04 2.061433563776e-02 
2.556000000000e+04 2.052331930448e-02 
2.565000000000e+04 2.043266762644e-02 
2.574000000000e+04 2.034238053426e-02 
2.583000000000e+04 2.025245791863e-02 
2.592000000000e+04 2.016289963150e-02 
2.601000000000e+04 2.007370548714e-02 
2.610000000000e+04 1.998487526325e-02 
2.619000000000e+04 1.989640870199e-02 
2.628000000000e+04 1.980830551106e-02 
2.637000000000e+04 1.972056536463e-02 
2.646000000000e+04 1.963318790439e-02 
2.655000000000e+04 1.954617274044e-02 
2.664000000000e+04 1.945951945229e-02 
2.673000000000e+04 1.937322758969e-02 
2.682000000000e+04 1.928729667358e-02 
2.691000000000e+04 1.920172619692e-02 
2.700000000000e+04 1.911651562555e-02 
2.709000000000e+04 1.903166439899e-02 
2.718000000000e+04 1.894717193125e-02 
2.727000000000e+04 1.886303761161e-02 
2.736000000000e+04 1.877926080541e-02 
2.745000000000e+04 1.869584085473e-02 
2.754000000000e+04 1.861277707917e-02 
2.763000000000e+04 1.853006877653e-02 
2.772000000000e+04 1.844771522352e-02 
2.781000000000e+04 1.836571567640e-02 
2.790000000000e+04 1.828406937165e-02 
2.799000000000e+04 1.820277552663e-02 
2.808000000000e+04 1.812183334017e-02 
2.817000000000e+04 1.804124199319e-02 
2.826000000000e+04 1.796100064930e-02 
2.835000000000e+04 1.788110845538e-02 
2.844000000000e+04 1.780156454211e-02 
2.853000000000e+04 1.772236802457e-02 
2.862000000000e+04 1.764351800274e-02 
2.871000000000e+04 1.756501356203e-02 
2.880000000000e+04 1.748685377379e-02 
2.889000000000e+04 1.740903769582e-02 
2.898000000000e+04 1.733156437285e-02 
2.907000000000e+04 1.725443283697e-02 
2.916000000000e+04 1.717764210817e-02 
2.925000000000e+04 1.710119119472e-02 
2.934000000000e+04 1.702507909363e-02 
2.943000000000e+04 1.694930479110e-02 
2.952000000000e+04 1.687386726290e-02 
2.961000000000e+04 1.679876547480e-02 
2.970000000000e+04 1.672399838296e-02 
2.979000000000e+04 1.664956493430e-02 
2.988000000000e+04 1.657546406691e-02 
2.997000000000e+04 1.650169471039e-02 
3.006000000000e+04 1.642825578620e-02 
3.015000000000e+04 1.635514620803e-02 
3.024000000000e+04 1.628236488215e-02 
3.033000000000e+04 1.620991070769e-02 
3.042000000000e+04 1.613778257702e-02 
3.051000000000e+04 1.606597937603e-02 
3.060000000000e+04 1.599449998446e-02 
3.069000000000e+04 1.592334327616e-02 
3.078000000000e+04 1.585250811943e-02 
3.087000000000e+04 1.578199337726e-02 
3.096000000000e+04 1.571179790765e-02 
3.105000000000e+04 1.564192056384e-02 
3.114000000000e+04 1.557236019458e-02 
3.123000000000e+04 1.550311564442e-02 
3.132000000000e+04 1.543418575392e-02 
3.141000000000e+04 1.536556935989e-02 
3.150000000000e+04 1.529726529568e-02 
3.159000000000e+04 1.522927239133e-02 
3.168000000000e+04 1.516158947387e-02 
3.177000000000e+04 1.509421536750e-02 
3.186000000000e+04 1.502714889379e-02 
3.195000000000e+04 1.496038887194e-02 
3.204000000000e+04 1.489393411891e-02 
3.213000000000e+04 1.482778344969e-02 
3.222000000000e+04 1.476193567743e-02 
3.231000000000e+04 1.469638961368e-02 
3.240000000000e+04 1.463114406851e-02 
3.249000000000e+04 1.456619785075e-02 
3.258000000000e+04 1.450154976813e-02 
3.267000000000e+04 1.443719862743e-02 
3.276000000000e+04 1.437314323469e-02 
3.285000000000e+04 1.430938239533e-02 
3.294000000000e+04 1.424591491431e-02 
3.303000000000e+04 1.418273959629e-02 
3.312000000000e+04 1.411985524579e-02 
3.321000000000e+04 1.405726066729e-02 
3.330000000000e+04 1.399495466541e-02 
3.339000000000e+04 1.393293604502e-02 
3.348000000000e+04 1.387120361138e-02 
3.357000000000e+04 1.380975617027e-02 
3.366000000000e+04 1.374859252809e-02 
3.375000000000e+04 1.368771149203e-02 
3.384000000000e+04 1.362711187013e-02 
3.393000000000e+04 1.356679247144e-02 
3.402000000000e+04 1.350675210609e-02 
3.411000000000e+04 1.344698958542e-02 
3.420000000000e+04 1.338750372209e-02 
3.429000000000e+04 1.332829333018e-02 
3.438000000000e+04 1.326935722526e-02 
3.447000000000e+04 1.321069422451e-02 
3.456000000000e+04 1.315230314682e-02 
3.465000000000e+04 1.309418281287e-02 
3.474000000000e+04 1.303633204519e-02 
3.483000000000e+04 1.297874966830e-02 
3.492000000000e+04 1.292143450874e-02 
3.501000000000e+04 1.286438539519e-02 
3.510000000000e+04 1.280760115852e-02 
3.519000000000e+04 1.275108063188e-02 
3.528000000000e+04 1.269482265075e-02 
3.537000000000e+04 1.263882605305e-02 
3.546000000000e+04 1.258308967917e-02 
3.555000000000e+04 1.252761237206e-02 
3.564000000000e+04 1.247239297728e-02 
3.573000000000e+04 1.241743034308e-02 
3.582000000000e+04 1.236272332042e-02 
3.591000000000e+04 1.230827076308e-02 
3.600000000000e+04 1.225407152769e-02 
3.609000000000e+04 1.220012447378e-02 
3.618000000000e+04 1.214642846383e-02 
3.627000000000e+04 1.209298236334e-02 
3.636000000000e+04 1.203978504088e-02 
3.645000000000e+04 1.198683536810e-02 
3.654000000000e+04 1.193413221981e-02 
3.663000000000e+04 1.188167447403e-02 
3.672000000000e+04 1.182946101199e-02 
3.681000000000e+04 1.177749071823e-02 
3.690000000000e+04 1.172576248059e-02 
3.699000000000e+04 1.167427519027e-02 
3.708000000000e+04 1.162302774187e-02 
3.717000000000e+04 1.157201903339e-02 
3.726000000000e+04 1.152124796633e-02 
3.735000000000e+04 1.147071344567e-02 
3.744000000000e+04 1.142041437991e-02 
3.753000000000e+04 1.137034968112e-02 
3.762000000000e+04 1.132051826494e-02 
3.771000000000e+04 1.127091905062e-02 
3.780000000000e+04 1.122155096108e-02 
3.789000000000e+04 1.117241292287e-02 
3.798000000000e+04 1.112350386625e-02 
3.807000000000e+04 1.107482272518e-02 
3.816000000000e+04 1.102636843737e-02 
3.825000000000e+04 1.097813994426e-02 
3.834000000000e+04 1.093013619109e-02 
3.843000000000e+04 1.088235612688e-02 
3.852000000000e+04 1.083479870447e-02 
3.861000000000e+04 1.078746288054e-02 
3.870000000000e+04 1.074034761558e-02 
3.879000000000e+04 1.069345187399e-02 
3.888000000000e+04 1.064677462401e-02 
3.897000000000e+04 1.060031483778e-02 
3.906000000000e+04 1.055407149135e-02 
3.915000000000e+04 1.050804356468e-02 
3.924000000000e+04 1.046223004166e-02 
3.933000000000e+04 1.041662991010e-02 
3.942000000000e+04 1.037124216179e-02 
3.951000000000e+04 1.032606579244e-02 
3.960000000000e+04 1.028109980175e-02 
3.969000000000e+04 1.023634319337e-02 
3.978000000000e+04 1.019179497495e-02 
3.987000000000e+04 1.014745415812e-02 
3.996000000000e+04 1.010331975849e-02 
4.005000000000e+04 1.005939079567e-02 
4.014000000000e+04 1.001566629328e-02 
4.023000000000e+04 9.972145278933e-03 
4.032000000000e+04 9.928826784261e-03 
4.041000000000e+04 9.885709844900e-03 
4.050000000000e+04 9.842793500497e-03 
4.059000000000e+04 9.800076794719e-03 
4.068000000000e+04 9.757558775246e-03 
4.077000000000e+04 9.715238493774e-03 
4.086000000000e+04 9.673115006017e-03 
4.095000000000e+04 9.631187371707e-03 
4.104000000000e+04 9.589454654589e-03 
4.113000000000e+04 9.547915922424e-03 
4.122000000000e+04 9.506570246986e-03 
4.131000000000e+04 9.465416704061e-03 
4.140000000000e+04 9.424454373440e-03 
4.149000000000e+04 9.383682338925e-03 
4.158000000000e+04 9.343099688316e-03 
4.167000000000e+04 9.302705513414e-03 
4.176000000000e+04 9.262498910014e-03 
4.185000000000e+04 9.222478977902e-03 
4.194000000000e+04 9.182644820850e-03 
4.203000000000e+04 9.142995546609e-03 
4.212000000000e+04 9.103530266908e-03 
4.221000000000e+04 9.064248097443e-03 
4.230000000000e+04 9.025148157875e-03 
4.239000000000e+04 8.986229571822e-03 
4.248000000000e+04 8.947491466852e-03 
4.257000000000e+04 8.908932974478e-03 
4.266000000000e+04 8.870553230149e-03 
4.275000000000e+04 8.832351373243e-03 
4.284000000000e+04 8.794326547059e-03 
4.293000000000e+04 8.756477898809e-03 
4.302000000000e+04 8.718804579613e-03 
4.311000000000e+04 8.681305744485e-03 
4.320000000000e+04 8.643980552327e-03 
4.329000000000e+04 8.606828165922e-03 
4.338000000000e+04 8.569847751921e-03 
4.347000000000e+04 8.533038480838e-03 
4.356000000000e+04 8.496399527037e-03 
4.365000000000e+04 8.459930068723e-03 
4.374000000000e+04 8.423629287933e-03 
4.383000000000e+04 8.387496370525e-03 
4.392000000000e+04 8.351530506169e-03 
4.401000000000e+04 8.315730888335e-03 
4.410000000000e+04 8.280096714283e-03 
4.419000000000e+04 8.244627185052e-03 
4.428000000000e+04 8.209321505451e-03 
4.437000000000e+04 8.174178884044e-03 
4.446000000000e+04 8.139198533142e-03 
4.455000000000e+04 8.104379668791e-03 
4.464000000000e+04 8.069721510759e-03 
4.473000000000e+04 8.035223282526e-03 
4.482000000000e+04 8.000884211271e-03 
4.491000000000e+04 7.966703527862e-03 
4.500000000000e+04 7.932680466843e-03 
4.509000000000e+04 7.898814266419e-03 
4.518000000000e+04 7.865104168450e-03 
4.527000000000e+04 7.831549418432e-03 
4.536000000000e+04 7.798149265489e-03 
4.545000000000e+04 7.764902962360e-03 
4.554000000000e+04 7.731809765385e-03 
4.563000000000e+04 7.698868934490e-03 
4.572000000000e+04 7.666079733183e-03 
4.581000000000e+04 7.633441428529e-03 
4.590000000000e+04 7.600953291148e-03 
4.599000000000e+04 7.568614595194e-03 
4.608000000000e+04 7.536424618348e-03 
4.617000000000e+04 7.504382641799e-03 
4.626000000000e+04 7.472487950237e-03 
4.635000000000e+04 7.440739831835e-03 
4.644000000000e+04 7.409137578236e-03 
4.653000000000e+04 7.377680484544e-03 
4.662000000000e+04 7.346367849305e-03 
4.671000000000e+04 7.315198974498e-03 
4.680000000000e+04 7.284173165517e-03 
4.689000000000e+04 7.253289731162e-03 
4.698000000000e+04 7.222547983623e-03 
4.707000000000e+04 7.191947238467e-03 
4.716000000000e+04 7.161486814624e-03 
4.725000000000e+04 7.131166034373e-03 
4.734000000000e+04 7.100984223329e-03 
4.743000000000e+04 7.070940710429e-03 
4.752000000000e+04 7.041034827919e-03 
4.761000000000e+04 7.011265911338e-03 
4.770000000000e+04 6.981633299506e-03 
4.779000000000e+04 6.952136334512e-03 
4.788000000000e+04 6.922774361695e-03 
4.797000000000e+04 6.893546729635e-03 
4.806000000000e+04 6.864452790136e-03 
4.815000000000e+04 6.835491898216e-03 
4.824000000000e+04 6.806663412087e-03 
4.833000000000e+04 6.777966693147e-03 
4.842000000000e+04 6.749401105964e-03 
4.851000000000e+04 6.720966018260e-03 
4.860000000000e+04 6.692660800902e-03 
4.869000000000e+04 6.664484827882e-03 
4.878000000000e+04 6.636437476308e-03 
4.887000000000e+04 6.608518126389e-03 
4.896000000000e+04 6.580726161419e-03 
4.905000000000e+04 6.553060967765e-03 
4.914000000000e+04 6.525521934855e-03 
4.923000000000e+04 6.498108455159e-03 
4.932000000000e+04 6.470819924180e-03 
4.941000000000e+04 6.443655740437e-03 
4.950000000000e+04 6.416615305454e-03 
4.959000000000e+04 6.389698023745e-03 
4.968000000000e+04 6.362903302798e-03 
4.977000000000e+04 6.336230553066e-03 
4.986000000000e+04 6.309679187948e-03 
4.995000000000e+04 6.283248623779e-03 
5.004000000000e+04 6.256938279816e-03 
5.013000000000e+04 6.230747578223e-03 
5.022000000000e+04 6.204675944057e-03 
5.031000000000e+04 6.178722805256e-03 
5.040000000000e+04 6.152887592625e-03 
5.049000000000e+04 6.127169739821e-03 
5.058000000000e+04 6.101568683343e-03 
5.067000000000e+04 6.076083862513e-03 
5.076000000000e+04 6.050714719467e-03 
5.085000000000e+04 6.025460699142e-03 
5.094000000000e+04 6.000321249259e-03 
5.103000000000e+04 5.975295820310e-03 
5.112000000000e+04 5.950383865549e-03 
5.121000000000e+04 5.925584840975e-03 
5.130000000000e+04 5.900898205318e-03 
5.139000000000e+04 5.876323420028e-03 
5.148000000000e+04 5.851859949262e-03 
5.157000000000e+04 5.827507259870e-03 
5.166000000000e+04 5.803264821379e-03 
5.175000000000e+04 5.779132105986e-03 
5.184000000000e+04 5.755108588540e-03 
5.193000000000e+04 5.731193746531e-03 
5.202000000000e+04 5.707387060075e-03 
5.211000000000e+04 5.683688011907e-03 
5.220000000000e+04 5.660096087358e-03 
5.229000000000e+04 5.636610774352e-03 
5.238000000000e+04 5.613231563388e-03 
5.247000000000e+04 5.589957947528e-03 
5.256000000000e+04 5.566789422386e-03 
5.265000000000e+04 5.543725486111e-03 
5.274000000000e+04 5.520765639379e-03 
5.283000000000e+04 5.497909385380e-03 
5.292000000000e+04 5.475156229802e-03 
5.301000000000e+04 5.452505680822e-03 
5.310000000000e+04 5.429957249090e-03 
5.319000000000e+04 5.407510447722e-03 
5.328000000000e+04 5.385164792281e-03 
5.337000000000e+04 5.362919800771e-03 
5.346000000000e+04 5.340774993618e-03 
5.355000000000e+04 5.318729893665e-03 
5.364000000000e+04 5.296784026155e-03 
5.373000000000e+04 5.274936918719e-03 
5.382000000000e+04 5.253188101367e-03 
5.391000000000e+04 5.231537106471e-03 
5.400000000000e+04 5.209983468760e-03 
5.409000000000e+04 5.188526725300e-03 
5.418000000000e+04 5.167166415488e-03 
5.427000000000e+04 5.145902081039e-03 
5.436000000000e+04 5.124733265971e-03 
5.445000000000e+04 5.103659516597e-03 
5.454000000000e+04 5.082680381512e-03 
5.463000000000e+04 5.061795411581e-03 
5.472000000000e+04 5.041004159928e-03 
5.481000000000e+04 5.020306181922e-03 
5.490000000000e+04 4.999701035170e-03 
5.499000000000e+04 4.979188279502e-03 
5.508000000000e+04 4.958767476959e-03 
5.517000000000e+04 4.938438191786e-03 
5.526000000000e+04 4.918199990415e-03 
5.535000000000e+04 4.898052441459e-03 
5.544000000000e+04 4.877995115697e-03 
5.553000000000e+04 4.858027586065e-03 
5.562000000000e+04 4.838149427642e-03 
5.571000000000e+04 4.818360217642e-03 
5.580000000000e+04 4.798659535404e-03 
5.589000000000e+04 4.779046962375e-03 
5.598000000000e+04 4.759522082106e-03 
5.607000000000e+04 4.740084480237e-03 
5.616000000000e+04 4.720733744486e-03 
5.625000000000e+04 4.701469464641e-03 
5.634000000000e+04 4.682291232548e-03 
5.643000000000e+04 4.663198642098e-03 
5.652000000000e+04 4.644191289221e-03 
5.661000000000e+04 4.625268771870e-03 
5.670000000000e+04 4.606430690014e-03 
5.679000000000e+04 4.587676645629e-03 
5.688000000000e+04 4.569006242682e-03 
5.697000000000e+04 4.550419087127e-03 
5.706000000000e+04 4.531914786887e-03 
5.715000000000e+04 4.513492951854e-03 
5.724000000000e+04 4.495153193868e-03 
5.733000000000e+04 4.476895126715e-03 
5.742000000000e+04 4.458718366112e-03 
5.751000000000e+04 4.440622529699e-03 
5.760000000000e+04 4.422607237029e-03 
5.769000000000e+04 4.404672109556e-03 
5.778000000000e+04 4.386816770628e-03 
5.787000000000e+04 4.369040845475e-03 
5.796000000000e+04 4.351343961201e-03 
5.805000000000e+04 4.333725746770e-03 
5.814000000000e+04 4.316185833002e-03 
5.823000000000e+04 4.298723852559e-03 
5.832000000000e+04 4.281339439937e-03 
5.841000000000e+04 4.264032231458e-03 
5.850000000000e+04 4.246801865256e-03 
5.859000000000e+04 4.229647981271e-03 
5.868000000000e+04 4.212570221240e-03 
5.877000000000e+04 4.195568228684e-03 
5.886000000000e+04 4.178641648902e-03 
5.895000000000e+04 4.161790128961e-03 
5.904000000000e+04 4.145013317684e-03 
5.913000000000e+04 4.128310865647e-03 
5.922000000000e+04 4.111682425162e-03 
5.931000000000e+04 4.095127650273e-03 
5.940000000000e+04 4.078646196747e-03 
5.949000000000e+04 4.062237722060e-03 
5.958000000000e+04 4.045901885394e-03 
5.967000000000e+04 4.029638347626e-03 
5.976000000000e+04 4.013446771318e-03 
5.985000000000e+04 3.997326820707e-03 
5.994000000000e+04 3.981278161700e-03 
6.003000000000e+04 3.965300461864e-03 
6.012000000000e+04 3.949393390413e-03 
6.021000000000e+04 3.933556618207e-03 
6.030000000000e+04 3.917789817735e-03 
6.039000000000e+04 3.902092663113e-03 
6.048000000000e+04 3.886464830072e-03 
6.057000000000e+04 3.870905995952e-03 
6.066000000000e+04 3.855415839691e-03 
6.075000000000e+04 3.839994041816e-03 
6.084000000000e+04 3.824640284439e-03 
6.093000000000e+04 3.809354251244e-03 
6.102000000000e+04 3.794135627481e-03 
6.111000000000e+04 3.778984099958e-03 
6.120000000000e+04 3.763899357032e-03 
6.129000000000e+04 3.748881088600e-03 
6.138000000000e+04 3.733928986094e-03 
6.147000000000e+04 3.719042742468e-03 
6.156000000000e+04 3.704222052195e-03 
6.165000000000e+04 3.689466611257e-03 
6.174000000000e+04 3.674776117135e-03 
6.183000000000e+04 3.660150268805e-03 
6.192000000000e+04 3.645588766727e-03 
6.201000000000e+04 3.631091312838e-03 
6.210000000000e+04 3.616657610546e-03 
6.219000000000e+04 3.602287364719e-03 
6.228000000000e+04 3.587980281681e-03 
6.237000000000e+04 3.573736069202e-03 
6.246000000000e+04 3.559554436490e-03 
6.255000000000e+04 3.545435094184e-03 
6.264000000000e+04 3.531377754349e-03 
6.273000000000e+04 3.517382130465e-03 
6.282000000000e+04 3.503447937421e-03 
6.291000000000e+04 3.489574891506e-03 
6.300000000000e+04 3.475762710406e-03 
6.309000000000e+04 3.462011113191e-03 
6.318000000000e+04 3.448319820313e-03 
6.327000000000e+04 3.434688553595e-03 
6.336000000000e+04 3.421117036224e-03 
6.345000000000e+04 3.407604992747e-03 
6.354000000000e+04 3.394152149060e-03 
6.363000000000e+04 3.380758232405e-03 
6.372000000000e+04 3.367422971357e-03 
6.381000000000e+04 3.354146095823e-03 
6.390000000000e+04 3.340927337034e-03 
6.399000000000e+04 3.327766427533e-03 
6.408000000000e+04 3.314663101175e-03 
6.417000000000e+04 3.301617093116e-03 
6.426000000000e+04 3.288628139805e-03 
6.435000000000e+04 3.275695978984e-03 
6.444000000000e+04 3.262820349671e-03 
6.453000000000e+04 3.250000992164e-03 
6.462000000000e+04 3.237237648025e-03 
6.471000000000e+04 3.224530060080e-03 
6.480000000000e+04 3.211877972410e-03 
6.489000000000e+04 3.199281130344e-03 
6.498000000000e+04 3.186739280451e-03 
6.507000000000e+04 3.174252170538e-03 
6.516000000000e+04 3.161819549640e-03 
6.525000000000e+04 3.149441168014e-03 
6.534000000000e+04 3.137116777133e-03 
6.543000000000e+04 3.124846129681e-03 
6.552000000000e+04 3.112628979545e-03 
6.561000000000e+04 3.100465081808e-03 
6.570000000000e+04 3.088354192745e-03 
6.579000000000e+04 3.076296069814e-03 
6.588000000000e+04 3.064290471655e-03 
6.597000000000e+04 3.052337158076e-03 
6.606000000000e+04 3.040435890055e-03 
6.615000000000e+04 3.028586429728e-03 
6.624000000000e+04 3.016788540386e-03 
6.633000000000e+04 3.005041986466e-03 
6.642000000000e+04 2.993346533551e-03 
6.651000000000e+04 2.981701948357e-03 
6.660000000000e+04 2.970107998731e-03 
6.669000000000e+04 2.958564453646e-03 
6.678000000000e+04 2.947071083190e-03 
6.687000000000e+04 2.935627658568e-03 
6.696000000000e+04 2.924233952089e-03 
6.705000000000e+04 2.912889737163e-03 
6.714000000000e+04 2.901594788298e-03 
6.723000000000e+04 2.890348881089e-03 
6.732000000000e+04 2.879151792217e-03 
6.741000000000e+04 2.868003299440e-03 
6.750000000000e+04 2.856903181591e-03 
6.759000000000e+04 2.845851218567e-03 
6.768000000000e+04 2.834847191331e-03 
6.777000000000e+04 2.823890881898e-03 
6.786000000000e+04 2.812982073337e-03 
6.795000000000e+04 2.802120549761e-03 
6.804000000000e+04 2.791306096323e-03 
6.813000000000e+04 2.780538499211e-03 
6.822000000000e+04 2.769817545641e-03 
6.831000000000e+04 2.759143023855e-03 
6.840000000000e+04 2.748514723112e-03 
6.849000000000e+04 2.737932433684e-03 
6.858000000000e+04 2.727395946853e-03 
6.867000000000e+04 2.716905054902e-03 
6.876000000000e+04 2.706459551113e-03 
6.885000000000e+04 2.696059229760e-03 